<?xml version="1.0" encoding="UTF-8"?>

<!-- generated on 2026-03-12T13:18:20.096060+08:00 by Eclipse SUMO GUI 1.26.0
<sumoConfiguration xmlns:xsi="http://www.w3.org/2001/XMLSchema-instance" xsi:noNamespaceSchemaLocation="http://sumo.dlr.de/xsd/sumoConfiguration.xsd">

    <input>
        <net-file value="D:\6Sumo\RLTesting\GreedyMap1\map.net.xml"/>
        <route-files value="D:\6Sumo\RLTesting\GreedyMap1\map.rou.xml,D:\6Sumo\RLTesting\GreedyMap1\persontrips_scale.rou.xml"/>
    </input>

    <output>
        <tripinfo-output value="D:\6Sumo\RLTesting\GreedyMap1\tripinfos.xml"/>
        <stop-output value="D:\6Sumo\RLTesting\GreedyMap1\stopinfos.xml"/>
        <statistic-output value="D:\6Sumo\RLTesting\GreedyMap1\stats.xml"/>
    </output>

    <report>
        <verbose value="true"/>
        <duration-log.statistics value="true"/>
        <no-step-log value="true"/>
    </report>

</sumoConfiguration>
-->

<tripinfos xmlns:xsi="http://www.w3.org/2001/XMLSchema-instance" xsi:noNamespaceSchemaLocation="http://sumo.dlr.de/xsd/tripinfo_file.xsd">
    <personinfo id="0" depart="70.00" type="DEFAULT_PEDTYPE" speedFactor="1.01" duration="247.00" waitingTime="83.00" timeLoss="56.48" traveltime="164.00">
        <ride waitingTime="83.00" vehicle="t_0" depart="153.00" arrival="317.00" arrivalPos="83.20" duration="164.00" routeLength="562.73" timeLoss="56.48"/>
    </personinfo>
    <personinfo id="1" depart="129.00" type="DEFAULT_PEDTYPE" speedFactor="1.08" duration="205.00" waitingTime="104.00" timeLoss="8.00" traveltime="101.00">
        <ride waitingTime="104.00" vehicle="t_1" depart="233.00" arrival="334.00" arrivalPos="83.20" duration="101.00" routeLength="338.57" timeLoss="8.00"/>
    </personinfo>
    <personinfo id="2" depart="289.00" type="DEFAULT_PEDTYPE" speedFactor="1.03" duration="250.00" waitingTime="124.00" timeLoss="36.02" traveltime="126.00">
        <ride waitingTime="124.00" vehicle="t_0" depart="413.00" arrival="539.00" arrivalPos="78.65" duration="126.00" routeLength="345.80" timeLoss="36.02"/>
    </personinfo>
    <personinfo id="3" depart="370.00" type="DEFAULT_PEDTYPE" speedFactor="0.83" duration="335.00" waitingTime="132.00" timeLoss="90.94" traveltime="203.00">
        <ride waitingTime="132.00" vehicle="t_1" depart="502.00" arrival="705.00" arrivalPos="79.20" duration="203.00" routeLength="571.33" timeLoss="90.94"/>
    </personinfo>
    <personinfo id="4" depart="417.00" type="DEFAULT_PEDTYPE" speedFactor="1.05" duration="342.00" waitingTime="184.00" timeLoss="50.77" traveltime="158.00">
        <ride waitingTime="184.00" vehicle="t_0" depart="601.00" arrival="759.00" arrivalPos="83.20" duration="158.00" routeLength="555.62" timeLoss="50.77"/>
    </personinfo>
    <personinfo id="5" depart="441.00" type="DEFAULT_PEDTYPE" speedFactor="0.89" duration="459.00" waitingTime="341.00" timeLoss="23.37" traveltime="118.00">
        <ride waitingTime="341.00" vehicle="t_1" depart="782.00" arrival="900.00" arrivalPos="79.20" duration="118.00" routeLength="349.95" timeLoss="23.37"/>
    </personinfo>
    <personinfo id="6" depart="442.00" type="DEFAULT_PEDTYPE" speedFactor="0.94" duration="549.00" waitingTime="384.00" timeLoss="60.31" traveltime="165.00">
        <ride waitingTime="384.00" vehicle="t_0" depart="826.00" arrival="991.00" arrivalPos="83.20" duration="165.00" routeLength="546.80" timeLoss="60.31"/>
    </personinfo>
    <personinfo id="7" depart="605.00" type="DEFAULT_PEDTYPE" speedFactor="0.86" duration="550.00" waitingTime="346.00" timeLoss="98.10" traveltime="204.00">
        <ride waitingTime="346.00" vehicle="t_1" depart="951.00" arrival="1155.00" arrivalPos="83.20" duration="204.00" routeLength="492.38" timeLoss="98.10"/>
    </personinfo>
    <personinfo id="8" depart="672.00" type="DEFAULT_PEDTYPE" speedFactor="1.09" duration="568.00" waitingTime="460.00" timeLoss="9.06" traveltime="108.00">
        <ride waitingTime="460.00" vehicle="t_0" depart="1132.00" arrival="1240.00" arrivalPos="78.65" duration="108.00" routeLength="440.26" timeLoss="9.06"/>
    </personinfo>
    <personinfo id="9" depart="672.00" type="DEFAULT_PEDTYPE" speedFactor="1.03" duration="683.00" waitingTime="538.00" timeLoss="49.58" traveltime="145.00">
        <ride waitingTime="538.00" vehicle="t_1" depart="1210.00" arrival="1355.00" arrivalPos="83.20" duration="145.00" routeLength="367.98" timeLoss="49.58"/>
    </personinfo>
</tripinfos>
