<?xml version="1.0" encoding="UTF-8"?>

<!-- generated on 2026-03-06 14:23:08 by Eclipse SUMO GUI Version 1.24.0
<sumoConfiguration xmlns:xsi="http://www.w3.org/2001/XMLSchema-instance" xsi:noNamespaceSchemaLocation="http://sumo.dlr.de/xsd/sumoConfiguration.xsd">

    <input>
        <net-file value="D:\6Sumo\RLTesting\GreedyMap1\map.net.xml"/>
        <route-files value="D:\6Sumo\RLTesting\GreedyMap1\map.rou.xml,D:\6Sumo\RLTesting\GreedyMap1\persontrips_scale.rou.xml"/>
    </input>

    <output>
        <tripinfo-output value="D:\6Sumo\RLTesting\GreedyMap1\tripinfos.xml"/>
        <stop-output value="D:\6Sumo\RLTesting\GreedyMap1\stopinfos.xml"/>
        <statistic-output value="D:\6Sumo\RLTesting\GreedyMap1\stats.xml"/>
    </output>

    <report>
        <verbose value="true"/>
        <duration-log.statistics value="true"/>
        <no-step-log value="true"/>
    </report>

</sumoConfiguration>
-->

<tripinfos xmlns:xsi="http://www.w3.org/2001/XMLSchema-instance" xsi:noNamespaceSchemaLocation="http://sumo.dlr.de/xsd/tripinfo_file.xsd">
    <personinfo id="0" depart="70.00" type="DEFAULT_PEDTYPE" speedFactor="1.01" duration="247.00" waitingTime="83.00" timeLoss="62.90" traveltime="164.00">
        <ride waitingTime="83.00" vehicle="t_0" depart="153.00" arrival="317.00" arrivalPos="83.20" duration="164.00" routeLength="562.73" timeLoss="62.90"/>
    </personinfo>
    <personinfo id="1" depart="129.00" type="DEFAULT_PEDTYPE" speedFactor="1.08" duration="204.00" waitingTime="103.00" timeLoss="15.35" traveltime="101.00">
        <ride waitingTime="103.00" vehicle="t_1" depart="232.00" arrival="333.00" arrivalPos="83.20" duration="101.00" routeLength="338.59" timeLoss="15.35"/>
    </personinfo>
    <personinfo id="2" depart="289.00" type="DEFAULT_PEDTYPE" speedFactor="1.03" duration="251.00" waitingTime="124.00" timeLoss="42.26" traveltime="127.00">
        <ride waitingTime="124.00" vehicle="t_0" depart="413.00" arrival="540.00" arrivalPos="78.65" duration="127.00" routeLength="345.81" timeLoss="42.26"/>
    </personinfo>
    <personinfo id="3" depart="370.00" type="DEFAULT_PEDTYPE" speedFactor="0.83" duration="335.00" waitingTime="133.00" timeLoss="97.58" traveltime="202.00">
        <ride waitingTime="133.00" vehicle="t_1" depart="503.00" arrival="705.00" arrivalPos="79.20" duration="202.00" routeLength="571.27" timeLoss="97.58"/>
    </personinfo>
    <personinfo id="4" depart="417.00" type="DEFAULT_PEDTYPE" speedFactor="1.05" duration="342.00" waitingTime="184.00" timeLoss="57.42" traveltime="158.00">
        <ride waitingTime="184.00" vehicle="t_0" depart="601.00" arrival="759.00" arrivalPos="83.20" duration="158.00" routeLength="555.62" timeLoss="57.42"/>
    </personinfo>
    <personinfo id="5" depart="441.00" type="DEFAULT_PEDTYPE" speedFactor="0.89" duration="456.00" waitingTime="339.00" timeLoss="30.78" traveltime="117.00">
        <ride waitingTime="339.00" vehicle="t_1" depart="780.00" arrival="897.00" arrivalPos="79.20" duration="117.00" routeLength="349.98" timeLoss="30.78"/>
    </personinfo>
    <personinfo id="6" depart="442.00" type="DEFAULT_PEDTYPE" speedFactor="0.94" duration="549.00" waitingTime="384.00" timeLoss="65.84" traveltime="165.00">
        <ride waitingTime="384.00" vehicle="t_0" depart="826.00" arrival="991.00" arrivalPos="83.20" duration="165.00" routeLength="546.80" timeLoss="65.84"/>
    </personinfo>
    <personinfo id="7" depart="605.00" type="DEFAULT_PEDTYPE" speedFactor="0.86" duration="551.00" waitingTime="346.00" timeLoss="106.61" traveltime="205.00">
        <ride waitingTime="346.00" vehicle="t_1" depart="951.00" arrival="1156.00" arrivalPos="83.20" duration="205.00" routeLength="492.40" timeLoss="106.61"/>
    </personinfo>
    <personinfo id="8" depart="672.00" type="DEFAULT_PEDTYPE" speedFactor="1.09" duration="570.00" waitingTime="461.00" timeLoss="17.63" traveltime="109.00">
        <ride waitingTime="461.00" vehicle="t_0" depart="1133.00" arrival="1242.00" arrivalPos="78.65" duration="109.00" routeLength="440.24" timeLoss="17.63"/>
    </personinfo>
    <personinfo id="9" depart="672.00" type="DEFAULT_PEDTYPE" speedFactor="1.03" duration="683.00" waitingTime="537.00" timeLoss="59.01" traveltime="146.00">
        <ride waitingTime="537.00" vehicle="t_1" depart="1209.00" arrival="1355.00" arrivalPos="83.20" duration="146.00" routeLength="367.98" timeLoss="59.01"/>
    </personinfo>
    <personinfo id="10" depart="692.00" type="DEFAULT_PEDTYPE" speedFactor="1.05" duration="730.00" waitingTime="630.00" timeLoss="13.95" traveltime="100.00">
        <ride waitingTime="630.00" vehicle="t_0" depart="1322.00" arrival="1422.00" arrivalPos="79.20" duration="100.00" routeLength="365.95" timeLoss="13.95"/>
    </personinfo>
    <personinfo id="11" depart="858.00" type="DEFAULT_PEDTYPE" speedFactor="1.12" duration="660.00" waitingTime="544.00" timeLoss="17.63" traveltime="116.00">
        <ride waitingTime="544.00" vehicle="t_1" depart="1402.00" arrival="1518.00" arrivalPos="78.65" duration="116.00" routeLength="475.33" timeLoss="17.63"/>
    </personinfo>
</tripinfos>
