<?xml version="1.0" encoding="UTF-8"?>

<!-- generated on 2025-10-11 13:38:38 by Eclipse SUMO GUI Version 1.24.0
<sumoConfiguration xmlns:xsi="http://www.w3.org/2001/XMLSchema-instance" xsi:noNamespaceSchemaLocation="http://sumo.dlr.de/xsd/sumoConfiguration.xsd">

    <input>
        <net-file value="D:\6Sumo\RLTesting\GreedyMap1\map.net.xml"/>
        <route-files value="D:\6Sumo\RLTesting\GreedyMap1\map.rou.xml,D:\6Sumo\RLTesting\GreedyMap1\persontrips_scale.rou.xml"/>
    </input>

    <output>
        <tripinfo-output value="D:\6Sumo\RLTesting\GreedyMap1\tripinfos.xml"/>
        <stop-output value="D:\6Sumo\RLTesting\GreedyMap1\stopinfos.xml"/>
        <statistic-output value="D:\6Sumo\RLTesting\GreedyMap1\stats.xml"/>
    </output>

    <report>
        <verbose value="true"/>
        <duration-log.statistics value="true"/>
        <no-step-log value="true"/>
    </report>

</sumoConfiguration>
-->

<tripinfos xmlns:xsi="http://www.w3.org/2001/XMLSchema-instance" xsi:noNamespaceSchemaLocation="http://sumo.dlr.de/xsd/tripinfo_file.xsd">
    <personinfo id="0" depart="70.00" type="DEFAULT_PEDTYPE" speedFactor="1.01" duration="247.00" waitingTime="83.00" timeLoss="62.90" traveltime="164.00">
        <ride waitingTime="83.00" vehicle="t_0" depart="153.00" arrival="317.00" arrivalPos="83.20" duration="164.00" routeLength="562.73" timeLoss="62.90"/>
    </personinfo>
    <personinfo id="1" depart="129.00" type="DEFAULT_PEDTYPE" speedFactor="1.08" duration="204.00" waitingTime="103.00" timeLoss="15.35" traveltime="101.00">
        <ride waitingTime="103.00" vehicle="t_1" depart="232.00" arrival="333.00" arrivalPos="83.20" duration="101.00" routeLength="338.59" timeLoss="15.35"/>
    </personinfo>
    <personinfo id="2" depart="289.00" type="DEFAULT_PEDTYPE" speedFactor="1.03" duration="251.00" waitingTime="124.00" timeLoss="42.26" traveltime="127.00">
        <ride waitingTime="124.00" vehicle="t_0" depart="413.00" arrival="540.00" arrivalPos="78.65" duration="127.00" routeLength="345.81" timeLoss="42.26"/>
    </personinfo>
    <personinfo id="3" depart="370.00" type="DEFAULT_PEDTYPE" speedFactor="0.83" duration="335.00" waitingTime="133.00" timeLoss="97.58" traveltime="202.00">
        <ride waitingTime="133.00" vehicle="t_1" depart="503.00" arrival="705.00" arrivalPos="79.20" duration="202.00" routeLength="571.27" timeLoss="97.58"/>
    </personinfo>
    <personinfo id="4" depart="417.00" type="DEFAULT_PEDTYPE" speedFactor="1.05" duration="342.00" waitingTime="184.00" timeLoss="57.42" traveltime="158.00">
        <ride waitingTime="184.00" vehicle="t_0" depart="601.00" arrival="759.00" arrivalPos="83.20" duration="158.00" routeLength="555.62" timeLoss="57.42"/>
    </personinfo>
    <personinfo id="5" depart="441.00" type="DEFAULT_PEDTYPE" speedFactor="0.89" duration="456.00" waitingTime="339.00" timeLoss="30.78" traveltime="117.00">
        <ride waitingTime="339.00" vehicle="t_1" depart="780.00" arrival="897.00" arrivalPos="79.20" duration="117.00" routeLength="349.98" timeLoss="30.78"/>
    </personinfo>
    <personinfo id="6" depart="442.00" type="DEFAULT_PEDTYPE" speedFactor="0.94" duration="549.00" waitingTime="384.00" timeLoss="65.84" traveltime="165.00">
        <ride waitingTime="384.00" vehicle="t_0" depart="826.00" arrival="991.00" arrivalPos="83.20" duration="165.00" routeLength="546.80" timeLoss="65.84"/>
    </personinfo>
    <personinfo id="7" depart="605.00" type="DEFAULT_PEDTYPE" speedFactor="0.86" duration="551.00" waitingTime="346.00" timeLoss="106.61" traveltime="205.00">
        <ride waitingTime="346.00" vehicle="t_1" depart="951.00" arrival="1156.00" arrivalPos="83.20" duration="205.00" routeLength="492.40" timeLoss="106.61"/>
    </personinfo>
    <personinfo id="8" depart="672.00" type="DEFAULT_PEDTYPE" speedFactor="1.09" duration="570.00" waitingTime="461.00" timeLoss="17.63" traveltime="109.00">
        <ride waitingTime="461.00" vehicle="t_0" depart="1133.00" arrival="1242.00" arrivalPos="78.65" duration="109.00" routeLength="440.24" timeLoss="17.63"/>
    </personinfo>
    <personinfo id="9" depart="672.00" type="DEFAULT_PEDTYPE" speedFactor="1.03" duration="683.00" waitingTime="537.00" timeLoss="59.01" traveltime="146.00">
        <ride waitingTime="537.00" vehicle="t_1" depart="1209.00" arrival="1355.00" arrivalPos="83.20" duration="146.00" routeLength="367.98" timeLoss="59.01"/>
    </personinfo>
    <personinfo id="10" depart="692.00" type="DEFAULT_PEDTYPE" speedFactor="1.05" duration="730.00" waitingTime="630.00" timeLoss="13.95" traveltime="100.00">
        <ride waitingTime="630.00" vehicle="t_0" depart="1322.00" arrival="1422.00" arrivalPos="79.20" duration="100.00" routeLength="365.95" timeLoss="13.95"/>
    </personinfo>
    <personinfo id="11" depart="858.00" type="DEFAULT_PEDTYPE" speedFactor="1.12" duration="660.00" waitingTime="544.00" timeLoss="17.63" traveltime="116.00">
        <ride waitingTime="544.00" vehicle="t_1" depart="1402.00" arrival="1518.00" arrivalPos="78.65" duration="116.00" routeLength="475.33" timeLoss="17.63"/>
    </personinfo>
    <personinfo id="13" depart="893.00" type="DEFAULT_PEDTYPE" speedFactor="0.93" duration="778.00" waitingTime="778.00" timeLoss="0.00" traveltime="1671.00">
        <ride waitingTime="778.00" vehicle="t_1" depart="-1" arrival="1671.00" arrivalPos="4.99" duration="1671.00" routeLength="0.04" timeLoss="0.00"/>
    </personinfo>
    <personinfo id="12" depart="862.00" type="DEFAULT_PEDTYPE" speedFactor="0.99" duration="833.00" waitingTime="675.00" timeLoss="56.08" traveltime="158.00">
        <ride waitingTime="675.00" vehicle="t_0" depart="1537.00" arrival="1695.00" arrivalPos="78.65" duration="158.00" routeLength="572.33" timeLoss="56.08"/>
    </personinfo>
    <personinfo id="14" depart="949.00" type="DEFAULT_PEDTYPE" speedFactor="0.88" duration="898.00" waitingTime="813.00" timeLoss="10.33" traveltime="85.00">
        <ride waitingTime="813.00" vehicle="t_1" depart="1762.00" arrival="1847.00" arrivalPos="78.65" duration="85.00" routeLength="187.92" timeLoss="10.33"/>
    </personinfo>
    <personinfo id="15" depart="982.00" type="DEFAULT_PEDTYPE" speedFactor="0.94" duration="937.00" waitingTime="788.00" timeLoss="55.02" traveltime="149.00">
        <ride waitingTime="788.00" vehicle="t_0" depart="1770.00" arrival="1919.00" arrivalPos="79.20" duration="149.00" routeLength="466.45" timeLoss="55.02"/>
    </personinfo>
    <personinfo id="16" depart="1089.00" type="DEFAULT_PEDTYPE" speedFactor="0.94" duration="887.00" waitingTime="780.00" timeLoss="11.45" traveltime="107.00">
        <ride waitingTime="780.00" vehicle="t_1" depart="1869.00" arrival="1976.00" arrivalPos="83.20" duration="107.00" routeLength="467.96" timeLoss="11.45"/>
    </personinfo>
    <personinfo id="17" depart="1181.00" type="DEFAULT_PEDTYPE" speedFactor="1.16" duration="962.00" waitingTime="759.00" timeLoss="117.27" traveltime="203.00">
        <ride waitingTime="759.00" vehicle="t_0" depart="1940.00" arrival="2143.00" arrivalPos="83.20" duration="203.00" routeLength="376.29" timeLoss="117.27"/>
    </personinfo>
    <personinfo id="18" depart="1255.00" type="DEFAULT_PEDTYPE" speedFactor="1.02" duration="900.00" waitingTime="786.00" timeLoss="34.13" traveltime="114.00">
        <ride waitingTime="786.00" vehicle="t_1" depart="2041.00" arrival="2155.00" arrivalPos="78.65" duration="114.00" routeLength="264.86" timeLoss="34.13"/>
    </personinfo>
    <personinfo id="19" depart="1318.00" type="DEFAULT_PEDTYPE" speedFactor="1.01" duration="966.00" waitingTime="863.00" timeLoss="16.13" traveltime="103.00">
        <ride waitingTime="863.00" vehicle="t_0" depart="2181.00" arrival="2284.00" arrivalPos="78.65" duration="103.00" routeLength="365.95" timeLoss="16.13"/>
    </personinfo>
    <personinfo id="20" depart="1349.00" type="DEFAULT_PEDTYPE" speedFactor="0.97" duration="1002.00" waitingTime="822.00" timeLoss="76.33" traveltime="180.00">
        <ride waitingTime="822.00" vehicle="t_1" depart="2171.00" arrival="2351.00" arrivalPos="83.20" duration="180.00" routeLength="582.10" timeLoss="76.33"/>
    </personinfo>
    <personinfo id="21" depart="1356.00" type="DEFAULT_PEDTYPE" speedFactor="0.89" duration="1159.00" waitingTime="1046.00" timeLoss="26.71" traveltime="113.00">
        <ride waitingTime="1046.00" vehicle="t_0" depart="2402.00" arrival="2515.00" arrivalPos="79.20" duration="113.00" routeLength="363.21" timeLoss="26.71"/>
    </personinfo>
    <personinfo id="22" depart="1490.00" type="DEFAULT_PEDTYPE" speedFactor="0.83" duration="1057.00" waitingTime="948.00" timeLoss="15.40" traveltime="109.00">
        <ride waitingTime="948.00" vehicle="t_1" depart="2438.00" arrival="2547.00" arrivalPos="79.20" duration="109.00" routeLength="436.31" timeLoss="15.40"/>
    </personinfo>
    <personinfo id="23" depart="1552.00" type="DEFAULT_PEDTYPE" speedFactor="0.87" duration="1120.00" waitingTime="1018.00" timeLoss="13.15" traveltime="102.00">
        <ride waitingTime="1018.00" vehicle="t_0" depart="2570.00" arrival="2672.00" arrivalPos="79.20" duration="102.00" routeLength="396.74" timeLoss="13.15"/>
    </personinfo>
    <personinfo id="24" depart="1636.00" type="DEFAULT_PEDTYPE" speedFactor="0.92" duration="1195.00" waitingTime="992.00" timeLoss="106.86" traveltime="203.00">
        <ride waitingTime="992.00" vehicle="t_1" depart="2628.00" arrival="2831.00" arrivalPos="78.65" duration="203.00" routeLength="470.26" timeLoss="106.86"/>
    </personinfo>
    <personinfo id="25" depart="1761.00" type="DEFAULT_PEDTYPE" speedFactor="0.95" duration="1159.00" waitingTime="1014.00" timeLoss="51.97" traveltime="145.00">
        <ride waitingTime="1014.00" vehicle="t_0" depart="2775.00" arrival="2920.00" arrivalPos="83.20" duration="145.00" routeLength="451.28" timeLoss="51.97"/>
    </personinfo>
</tripinfos>
