<?xml version="1.0" encoding="UTF-8"?>

<!-- generated on 2026-03-07T22:19:07.195671+08:00 by Eclipse SUMO GUI 1.26.0
<sumoConfiguration xmlns:xsi="http://www.w3.org/2001/XMLSchema-instance" xsi:noNamespaceSchemaLocation="http://sumo.dlr.de/xsd/sumoConfiguration.xsd">

    <input>
        <net-file value="D:\6Sumo\RLTesting\SunwayFinalMap\osm.net.xml"/>
        <route-files value="D:\6Sumo\RLTesting\SunwayFinalMap\requests.rou.xml,D:\6Sumo\RLTesting\SunwayFinalMap\demand.rou.xml"/>
        <additional-files value="D:\6Sumo\RLTesting\SunwayFinalMap\output.add.xml"/>
    </input>

    <output>
        <tripinfo-output value="D:\6Sumo\RLTesting\SunwayFinalMap\tripinfos.xml"/>
        <statistic-output value="D:\6Sumo\RLTesting\SunwayFinalMap\stats.xml"/>
    </output>

    <processing>
        <ignore-route-errors value="true"/>
        <tls.actuated.jam-threshold value="30"/>
    </processing>

    <routing>
        <device.rerouting.adaptation-steps value="18"/>
        <device.rerouting.adaptation-interval value="10"/>
    </routing>

    <report>
        <verbose value="true"/>
        <duration-log.statistics value="true"/>
        <no-step-log value="true"/>
    </report>

    <taxi_device>
        <device.taxi.dispatch-algorithm value="greedyClosest"/>
    </taxi_device>

    <gui_only>
        <gui-settings-file value="D:\6Sumo\RLTesting\SunwayFinalMap\osm.view.xml"/>
    </gui_only>

</sumoConfiguration>
-->

<tripinfos xmlns:xsi="http://www.w3.org/2001/XMLSchema-instance" xsi:noNamespaceSchemaLocation="http://sumo.dlr.de/xsd/tripinfo_file.xsd">
    <personinfo id="0" depart="0.00" type="DEFAULT_PEDTYPE" speedFactor="1.06" duration="563.00" waitingTime="201.00" timeLoss="71.46" traveltime="362.00">
        <ride waitingTime="201.00" vehicle="t_0" depart="201.00" arrival="563.00" arrivalPos="46.72" duration="362.00" routeLength="4754.47" timeLoss="71.46"/>
    </personinfo>
    <personinfo id="4" depart="400.00" type="DEFAULT_PEDTYPE" speedFactor="0.83" duration="691.00" waitingTime="320.00" timeLoss="53.70" traveltime="371.00">
        <ride waitingTime="320.00" vehicle="t_0" depart="720.00" arrival="1091.00" arrivalPos="0.20" duration="371.00" routeLength="5720.05" timeLoss="53.70"/>
    </personinfo>
    <personinfo id="7" depart="700.00" type="DEFAULT_PEDTYPE" speedFactor="0.94" duration="792.00" waitingTime="524.00" timeLoss="31.36" traveltime="268.00">
        <ride waitingTime="524.00" vehicle="t_0" depart="1224.00" arrival="1492.00" arrivalPos="20.40" duration="268.00" routeLength="3027.27" timeLoss="31.36"/>
    </personinfo>
    <personinfo id="3" depart="300.00" type="DEFAULT_PEDTYPE" speedFactor="1.03" duration="1518.00" waitingTime="1269.00" timeLoss="30.28" traveltime="249.00">
        <ride waitingTime="1269.00" vehicle="t_0" depart="1569.00" arrival="1818.00" arrivalPos="23.51" duration="249.00" routeLength="3331.93" timeLoss="30.28"/>
    </personinfo>
    <personinfo id="13" depart="1300.00" type="DEFAULT_PEDTYPE" speedFactor="0.99" duration="780.00" waitingTime="609.00" timeLoss="57.90" traveltime="171.00">
        <ride waitingTime="609.00" vehicle="t_0" depart="1909.00" arrival="2080.00" arrivalPos="13.36" duration="171.00" routeLength="1002.25" timeLoss="57.90"/>
    </personinfo>
    <personinfo id="11" depart="1100.00" type="DEFAULT_PEDTYPE" speedFactor="1.05" duration="1287.00" waitingTime="1119.00" timeLoss="6.03" traveltime="168.00">
        <ride waitingTime="1119.00" vehicle="t_0" depart="2219.00" arrival="2387.00" arrivalPos="23.67" duration="168.00" routeLength="1353.77" timeLoss="6.03"/>
    </personinfo>
    <personinfo id="20" depart="2000.00" type="DEFAULT_PEDTYPE" speedFactor="1.01" duration="708.00" waitingTime="465.00" timeLoss="41.68" traveltime="243.00">
        <ride waitingTime="465.00" vehicle="t_0" depart="2465.00" arrival="2708.00" arrivalPos="19.52" duration="243.00" routeLength="2308.33" timeLoss="41.68"/>
    </personinfo>
    <personinfo id="21" depart="2100.00" type="DEFAULT_PEDTYPE" speedFactor="0.97" duration="1192.00" waitingTime="800.00" timeLoss="65.12" traveltime="392.00">
        <ride waitingTime="800.00" vehicle="t_0" depart="2900.00" arrival="3292.00" arrivalPos="23.30" duration="392.00" routeLength="5340.17" timeLoss="65.12"/>
    </personinfo>
    <personinfo id="31" depart="3100.00" type="DEFAULT_PEDTYPE" speedFactor="1.01" duration="587.00" waitingTime="226.00" timeLoss="67.79" traveltime="361.00">
        <ride waitingTime="226.00" vehicle="t_0" depart="3326.00" arrival="3687.00" arrivalPos="36.25" duration="361.00" routeLength="4870.03" timeLoss="67.79"/>
    </personinfo>
    <personinfo id="29" depart="2900.00" type="DEFAULT_PEDTYPE" speedFactor="1.18" duration="1208.00" waitingTime="901.00" timeLoss="303.58" traveltime="307.00">
        <ride waitingTime="901.00" vehicle="t_0" depart="3801.00" arrival="4108.00" arrivalPos="22.53" duration="307.00" routeLength="37.12" timeLoss="303.58"/>
    </personinfo>
    <tripinfo id="t_0" depart="10.00" departLane="102678342#1_0" departPos="7.44" departSpeed="0.00" departDelay="0.00" arrival="4108.00" arrivalLane="-53561351#1_0" arrivalPos="22.53" arrivalSpeed="12.80" duration="4098.00" routeLength="43580.44" waitingTime="407.00" waitingCount="19" stopTime="864.00" timeLoss="901.65" rerouteNo="21" devices="tripinfo_t_0 routing_t_0 taxi_t_0 person_t_0" vType="myTaxi" speedFactor="1.01" vaporized="">
        <taxi customers="9" occupiedDistance="31749.20" occupiedTime="2381.00"/>
    </tripinfo>
    <personinfo id="6" depart="600.00" type="DEFAULT_PEDTYPE" speedFactor="0.89" duration="-1" waitingTime="3541.00" timeLoss="-1" traveltime="-1">
        <ride waitingTime="3541.00" vehicle="NULL" depart="-1" arrival="-1" arrivalPos="-1" duration="-1" routeLength="-1" timeLoss="-1"/>
    </personinfo>
    <personinfo id="22" depart="2200.00" type="DEFAULT_PEDTYPE" speedFactor="0.89" duration="-1" waitingTime="1941.00" timeLoss="-1" traveltime="-1">
        <ride waitingTime="1941.00" vehicle="NULL" depart="-1" arrival="-1" arrivalPos="-1" duration="-1" routeLength="-1" timeLoss="-1"/>
    </personinfo>
    <personinfo id="23" depart="2300.00" type="DEFAULT_PEDTYPE" speedFactor="0.83" duration="-1" waitingTime="1841.00" timeLoss="-1" traveltime="-1">
        <ride waitingTime="1841.00" vehicle="NULL" depart="-1" arrival="-1" arrivalPos="-1" duration="-1" routeLength="-1" timeLoss="-1"/>
    </personinfo>
    <personinfo id="28" depart="2800.00" type="DEFAULT_PEDTYPE" speedFactor="0.93" duration="-1" waitingTime="1341.00" timeLoss="-1" traveltime="-1">
        <ride waitingTime="1341.00" vehicle="NULL" depart="-1" arrival="-1" arrivalPos="-1" duration="-1" routeLength="-1" timeLoss="-1"/>
    </personinfo>
    <personinfo id="35" depart="3500.00" type="DEFAULT_PEDTYPE" speedFactor="0.97" duration="-1" waitingTime="641.00" timeLoss="-1" traveltime="-1">
        <ride waitingTime="641.00" vehicle="NULL" depart="-1" arrival="-1" arrivalPos="-1" duration="-1" routeLength="-1" timeLoss="-1"/>
    </personinfo>
    <personinfo id="5" depart="500.00" type="DEFAULT_PEDTYPE" speedFactor="1.05" duration="-1" waitingTime="3641.00" timeLoss="-1" traveltime="-1">
        <ride waitingTime="3641.00" vehicle="NULL" depart="-1" arrival="-1" arrivalPos="-1" duration="-1" routeLength="-1" timeLoss="-1"/>
    </personinfo>
    <personinfo id="8" depart="800.00" type="DEFAULT_PEDTYPE" speedFactor="0.86" duration="-1" waitingTime="3341.00" timeLoss="-1" traveltime="-1">
        <ride waitingTime="3341.00" vehicle="NULL" depart="-1" arrival="-1" arrivalPos="-1" duration="-1" routeLength="-1" timeLoss="-1"/>
    </personinfo>
    <personinfo id="33" depart="3300.00" type="DEFAULT_PEDTYPE" speedFactor="0.99" duration="-1" waitingTime="841.00" timeLoss="-1" traveltime="-1">
        <ride waitingTime="841.00" vehicle="NULL" depart="-1" arrival="-1" arrivalPos="-1" duration="-1" routeLength="-1" timeLoss="-1"/>
    </personinfo>
    <personinfo id="26" depart="2600.00" type="DEFAULT_PEDTYPE" speedFactor="0.95" duration="-1" waitingTime="1541.00" timeLoss="-1" traveltime="-1">
        <ride waitingTime="1541.00" vehicle="NULL" depart="-1" arrival="-1" arrivalPos="-1" duration="-1" routeLength="-1" timeLoss="-1"/>
    </personinfo>
    <personinfo id="1" depart="100.00" type="DEFAULT_PEDTYPE" speedFactor="0.94" duration="-1" waitingTime="4041.00" timeLoss="-1" traveltime="-1">
        <ride waitingTime="4041.00" vehicle="NULL" depart="-1" arrival="-1" arrivalPos="-1" duration="-1" routeLength="-1" timeLoss="-1"/>
    </personinfo>
    <personinfo id="34" depart="3400.00" type="DEFAULT_PEDTYPE" speedFactor="1.02" duration="-1" waitingTime="741.00" timeLoss="-1" traveltime="-1">
        <ride waitingTime="741.00" vehicle="NULL" depart="-1" arrival="-1" arrivalPos="-1" duration="-1" routeLength="-1" timeLoss="-1"/>
    </personinfo>
    <personinfo id="25" depart="2500.00" type="DEFAULT_PEDTYPE" speedFactor="0.92" duration="-1" waitingTime="1641.00" timeLoss="-1" traveltime="-1">
        <ride waitingTime="1641.00" vehicle="NULL" depart="-1" arrival="-1" arrivalPos="-1" duration="-1" routeLength="-1" timeLoss="-1"/>
    </personinfo>
    <personinfo id="17" depart="1700.00" type="DEFAULT_PEDTYPE" speedFactor="0.94" duration="-1" waitingTime="2441.00" timeLoss="-1" traveltime="-1">
        <ride waitingTime="2441.00" vehicle="NULL" depart="-1" arrival="-1" arrivalPos="-1" duration="-1" routeLength="-1" timeLoss="-1"/>
    </personinfo>
    <personinfo id="16" depart="1600.00" type="DEFAULT_PEDTYPE" speedFactor="0.94" duration="-1" waitingTime="2541.00" timeLoss="-1" traveltime="-1">
        <ride waitingTime="2541.00" vehicle="NULL" depart="-1" arrival="-1" arrivalPos="-1" duration="-1" routeLength="-1" timeLoss="-1"/>
    </personinfo>
    <personinfo id="24" depart="2400.00" type="DEFAULT_PEDTYPE" speedFactor="0.87" duration="-1" waitingTime="1741.00" timeLoss="-1" traveltime="-1">
        <ride waitingTime="1741.00" vehicle="NULL" depart="-1" arrival="-1" arrivalPos="-1" duration="-1" routeLength="-1" timeLoss="-1"/>
    </personinfo>
    <personinfo id="27" depart="2700.00" type="DEFAULT_PEDTYPE" speedFactor="1.13" duration="-1" waitingTime="1441.00" timeLoss="-1" traveltime="-1">
        <ride waitingTime="1441.00" vehicle="NULL" depart="-1" arrival="-1" arrivalPos="-1" duration="-1" routeLength="-1" timeLoss="-1"/>
    </personinfo>
    <personinfo id="2" depart="200.00" type="DEFAULT_PEDTYPE" speedFactor="1.08" duration="-1" waitingTime="3941.00" timeLoss="-1" traveltime="-1">
        <ride waitingTime="3941.00" vehicle="NULL" depart="-1" arrival="-1" arrivalPos="-1" duration="-1" routeLength="-1" timeLoss="-1"/>
    </personinfo>
    <personinfo id="10" depart="1000.00" type="DEFAULT_PEDTYPE" speedFactor="1.03" duration="-1" waitingTime="3141.00" timeLoss="-1" traveltime="-1">
        <ride waitingTime="3141.00" vehicle="NULL" depart="-1" arrival="-1" arrivalPos="-1" duration="-1" routeLength="-1" timeLoss="-1"/>
    </personinfo>
    <personinfo id="15" depart="1500.00" type="DEFAULT_PEDTYPE" speedFactor="0.88" duration="-1" waitingTime="2641.00" timeLoss="-1" traveltime="-1">
        <ride waitingTime="2641.00" vehicle="NULL" depart="-1" arrival="-1" arrivalPos="-1" duration="-1" routeLength="-1" timeLoss="-1"/>
    </personinfo>
    <personinfo id="9" depart="900.00" type="DEFAULT_PEDTYPE" speedFactor="1.09" duration="-1" waitingTime="3241.00" timeLoss="-1" traveltime="-1">
        <ride waitingTime="3241.00" vehicle="NULL" depart="-1" arrival="-1" arrivalPos="-1" duration="-1" routeLength="-1" timeLoss="-1"/>
    </personinfo>
    <personinfo id="18" depart="1800.00" type="DEFAULT_PEDTYPE" speedFactor="1.16" duration="-1" waitingTime="2341.00" timeLoss="-1" traveltime="-1">
        <ride waitingTime="2341.00" vehicle="NULL" depart="-1" arrival="-1" arrivalPos="-1" duration="-1" routeLength="-1" timeLoss="-1"/>
    </personinfo>
    <personinfo id="32" depart="3200.00" type="DEFAULT_PEDTYPE" speedFactor="1.17" duration="-1" waitingTime="941.00" timeLoss="-1" traveltime="-1">
        <ride waitingTime="941.00" vehicle="NULL" depart="-1" arrival="-1" arrivalPos="-1" duration="-1" routeLength="-1" timeLoss="-1"/>
    </personinfo>
    <personinfo id="14" depart="1400.00" type="DEFAULT_PEDTYPE" speedFactor="0.93" duration="-1" waitingTime="2741.00" timeLoss="-1" traveltime="-1">
        <ride waitingTime="2741.00" vehicle="NULL" depart="-1" arrival="-1" arrivalPos="-1" duration="-1" routeLength="-1" timeLoss="-1"/>
    </personinfo>
    <personinfo id="19" depart="1900.00" type="DEFAULT_PEDTYPE" speedFactor="1.02" duration="-1" waitingTime="2241.00" timeLoss="-1" traveltime="-1">
        <ride waitingTime="2241.00" vehicle="NULL" depart="-1" arrival="-1" arrivalPos="-1" duration="-1" routeLength="-1" timeLoss="-1"/>
    </personinfo>
    <personinfo id="12" depart="1200.00" type="DEFAULT_PEDTYPE" speedFactor="1.12" duration="-1" waitingTime="2941.00" timeLoss="-1" traveltime="-1">
        <ride waitingTime="2941.00" vehicle="NULL" depart="-1" arrival="-1" arrivalPos="-1" duration="-1" routeLength="-1" timeLoss="-1"/>
    </personinfo>
    <personinfo id="30" depart="3000.00" type="DEFAULT_PEDTYPE" speedFactor="1.15" duration="-1" waitingTime="1141.00" timeLoss="-1" traveltime="-1">
        <ride waitingTime="1141.00" vehicle="NULL" depart="-1" arrival="-1" arrivalPos="-1" duration="-1" routeLength="-1" timeLoss="-1"/>
    </personinfo>
</tripinfos>
