<?xml version="1.0" encoding="UTF-8"?>

<!-- generated on 2026-03-22T14:13:20.897530+08:00 by Eclipse SUMO sumo 1.26.0
<sumoConfiguration xmlns:xsi="http://www.w3.org/2001/XMLSchema-instance" xsi:noNamespaceSchemaLocation="http://sumo.dlr.de/xsd/sumoConfiguration.xsd">

    <input>
        <net-file value="..\SmallTestingMap\map.net.xml"/>
        <route-files value="..\SmallTestingMap\map.rou.xml,..\SmallTestingMap\persontrips_scale.rou.xml"/>
    </input>

    <output>
        <tripinfo-output value="..\SmallTestingMap\tripinfos.xml"/>
        <stop-output value="..\SmallTestingMap\stopinfos.xml"/>
        <statistic-output value="..\SmallTestingMap\stats.xml"/>
    </output>

    <time>
        <step-length value="1.0"/>
    </time>

    <report>
        <verbose value="true"/>
        <duration-log.statistics value="true"/>
        <no-step-log value="true"/>
    </report>

    <taxi_device>
        <device.taxi.dispatch-algorithm value="traci"/>
    </taxi_device>

    <traci_server>
        <remote-port value="59418"/>
    </traci_server>

</sumoConfiguration>
-->

<tripinfos xmlns:xsi="http://www.w3.org/2001/XMLSchema-instance" xsi:noNamespaceSchemaLocation="http://sumo.dlr.de/xsd/tripinfo_file.xsd">
    <personinfo id="0" depart="0.00" type="DEFAULT_PEDTYPE" speedFactor="1.01" duration="150.00" waitingTime="61.00" timeLoss="6.69" traveltime="89.00">
        <ride waitingTime="61.00" vehicle="t_1" depart="61.00" arrival="150.00" arrivalPos="0.20" duration="89.00" routeLength="213.44" timeLoss="6.69"/>
    </personinfo>
    <personinfo id="1" depart="24.00" type="DEFAULT_PEDTYPE" speedFactor="1.08" duration="148.00" waitingTime="33.00" timeLoss="10.16" traveltime="115.00">
        <ride waitingTime="33.00" vehicle="t_0" depart="57.00" arrival="172.00" arrivalPos="83.20" duration="115.00" routeLength="551.75" timeLoss="10.16"/>
    </personinfo>
    <personinfo id="2" depart="234.00" type="DEFAULT_PEDTYPE" speedFactor="1.12" duration="125.00" waitingTime="31.00" timeLoss="7.38" traveltime="94.00">
        <ride waitingTime="31.00" vehicle="t_1" depart="265.00" arrival="359.00" arrivalPos="0.20" duration="94.00" routeLength="278.79" timeLoss="7.38"/>
    </personinfo>
    <personinfo id="3" depart="431.00" type="DEFAULT_PEDTYPE" speedFactor="0.90" duration="164.00" waitingTime="81.00" timeLoss="4.00" traveltime="83.00">
        <ride waitingTime="81.00" vehicle="t_1" depart="512.00" arrival="595.00" arrivalPos="0.20" duration="83.00" routeLength="178.02" timeLoss="4.00"/>
    </personinfo>
    <personinfo id="4" depart="454.00" type="DEFAULT_PEDTYPE" speedFactor="0.88" duration="161.00" waitingTime="45.00" timeLoss="37.69" traveltime="116.00">
        <ride waitingTime="45.00" vehicle="t_0" depart="499.00" arrival="615.00" arrivalPos="0.20" duration="116.00" routeLength="199.99" timeLoss="37.69"/>
    </personinfo>
    <personinfo id="5" depart="642.00" type="DEFAULT_PEDTYPE" speedFactor="0.91" duration="185.00" waitingTime="84.00" timeLoss="8.03" traveltime="101.00">
        <ride waitingTime="84.00" vehicle="t_1" depart="726.00" arrival="827.00" arrivalPos="0.20" duration="101.00" routeLength="318.68" timeLoss="8.03"/>
    </personinfo>
    <personinfo id="6" depart="839.00" type="DEFAULT_PEDTYPE" speedFactor="1.04" duration="121.00" waitingTime="20.00" timeLoss="8.46" traveltime="101.00">
        <ride waitingTime="20.00" vehicle="t_1" depart="859.00" arrival="960.00" arrivalPos="83.20" duration="101.00" routeLength="338.58" timeLoss="8.46"/>
    </personinfo>
    <personinfo id="7" depart="919.00" type="DEFAULT_PEDTYPE" speedFactor="0.87" duration="121.00" waitingTime="12.00" timeLoss="16.10" traveltime="109.00">
        <ride waitingTime="12.00" vehicle="t_0" depart="931.00" arrival="1040.00" arrivalPos="78.65" duration="109.00" routeLength="275.65" timeLoss="16.10"/>
    </personinfo>
    <personinfo id="8" depart="945.00" type="DEFAULT_PEDTYPE" speedFactor="1.10" duration="170.00" waitingTime="19.00" timeLoss="5.89" traveltime="151.00">
        <ride waitingTime="19.00" vehicle="t_0" depart="964.00" arrival="1115.00" arrivalPos="83.20" duration="151.00" routeLength="175.67" timeLoss="5.89"/>
    </personinfo>
    <personinfo id="10" depart="991.00" type="DEFAULT_PEDTYPE" speedFactor="1.10" duration="182.00" waitingTime="32.00" timeLoss="49.44" traveltime="150.00">
        <ride waitingTime="32.00" vehicle="t_1" depart="1023.00" arrival="1173.00" arrivalPos="79.20" duration="150.00" routeLength="450.84" timeLoss="49.44"/>
    </personinfo>
    <personinfo id="9" depart="968.00" type="DEFAULT_PEDTYPE" speedFactor="1.01" duration="379.00" waitingTime="229.00" timeLoss="55.92" traveltime="150.00">
        <ride waitingTime="229.00" vehicle="t_0" depart="1197.00" arrival="1347.00" arrivalPos="83.20" duration="150.00" routeLength="352.24" timeLoss="55.92"/>
    </personinfo>
    <personinfo id="11" depart="1068.00" type="DEFAULT_PEDTYPE" speedFactor="0.92" duration="292.00" waitingTime="177.00" timeLoss="9.22" traveltime="115.00">
        <ride waitingTime="177.00" vehicle="t_1" depart="1245.00" arrival="1360.00" arrivalPos="78.65" duration="115.00" routeLength="180.11" timeLoss="9.22"/>
    </personinfo>
    <personinfo id="12" depart="1266.00" type="DEFAULT_PEDTYPE" speedFactor="0.84" duration="231.00" waitingTime="146.00" timeLoss="4.92" traveltime="85.00">
        <ride waitingTime="146.00" vehicle="t_1" depart="1412.00" arrival="1497.00" arrivalPos="0.20" duration="85.00" routeLength="178.60" timeLoss="4.92"/>
    </personinfo>
    <personinfo id="14" depart="1507.00" type="DEFAULT_PEDTYPE" speedFactor="1.02" duration="138.00" waitingTime="47.00" timeLoss="5.24" traveltime="91.00">
        <ride waitingTime="47.00" vehicle="t_0" depart="1554.00" arrival="1645.00" arrivalPos="78.65" duration="91.00" routeLength="276.23" timeLoss="5.24"/>
    </personinfo>
    <personinfo id="13" depart="1291.00" type="DEFAULT_PEDTYPE" speedFactor="0.85" duration="363.00" waitingTime="257.00" timeLoss="6.80" traveltime="106.00">
        <ride waitingTime="257.00" vehicle="t_1" depart="1548.00" arrival="1654.00" arrivalPos="78.65" duration="106.00" routeLength="391.64" timeLoss="6.80"/>
    </personinfo>
    <personinfo id="15" depart="1533.00" type="DEFAULT_PEDTYPE" speedFactor="1.06" duration="245.00" waitingTime="138.00" timeLoss="10.43" traveltime="107.00">
        <ride waitingTime="138.00" vehicle="t_0" depart="1671.00" arrival="1778.00" arrivalPos="78.65" duration="107.00" routeLength="375.67" timeLoss="10.43"/>
    </personinfo>
    <personinfo id="17" depart="1586.00" type="DEFAULT_PEDTYPE" speedFactor="0.95" duration="213.00" waitingTime="98.00" timeLoss="19.57" traveltime="115.00">
        <ride waitingTime="98.00" vehicle="t_1" depart="1684.00" arrival="1799.00" arrivalPos="83.20" duration="115.00" routeLength="361.43" timeLoss="19.57"/>
    </personinfo>
    <personinfo id="16" depart="1559.00" type="DEFAULT_PEDTYPE" speedFactor="1.10" duration="360.00" waitingTime="93.00" timeLoss="77.14" traveltime="267.00">
        <ride waitingTime="93.00" vehicle="t_0" depart="1652.00" arrival="1919.00" arrivalPos="79.20" duration="267.00" routeLength="671.68" timeLoss="77.14"/>
    </personinfo>
    <personinfo id="18" depart="1663.00" type="DEFAULT_PEDTYPE" speedFactor="0.91" duration="401.00" waitingTime="236.00" timeLoss="53.00" traveltime="165.00">
        <ride waitingTime="236.00" vehicle="t_1" depart="1899.00" arrival="2064.00" arrivalPos="83.20" duration="165.00" routeLength="577.42" timeLoss="53.00"/>
    </personinfo>
    <personinfo id="20" depart="1953.00" type="DEFAULT_PEDTYPE" speedFactor="1.07" duration="139.00" waitingTime="46.00" timeLoss="5.99" traveltime="93.00">
        <ride waitingTime="46.00" vehicle="t_0" depart="1999.00" arrival="2092.00" arrivalPos="83.20" duration="93.00" routeLength="266.12" timeLoss="5.99"/>
    </personinfo>
    <personinfo id="19" depart="1736.00" type="DEFAULT_PEDTYPE" speedFactor="0.84" duration="502.00" waitingTime="163.00" timeLoss="128.30" traveltime="339.00">
        <ride waitingTime="163.00" vehicle="t_1" depart="1899.00" arrival="2238.00" arrivalPos="83.20" duration="339.00" routeLength="958.11" timeLoss="128.30"/>
    </personinfo>
    <personinfo id="21" depart="2159.00" type="DEFAULT_PEDTYPE" speedFactor="1.05" duration="155.00" waitingTime="31.00" timeLoss="20.29" traveltime="124.00">
        <ride waitingTime="31.00" vehicle="t_0" depart="2190.00" arrival="2314.00" arrivalPos="0.20" duration="124.00" routeLength="443.04" timeLoss="20.29"/>
    </personinfo>
    <personinfo id="22" depart="2182.00" type="DEFAULT_PEDTYPE" speedFactor="0.71" duration="286.00" waitingTime="50.00" timeLoss="57.00" traveltime="236.00">
        <ride waitingTime="50.00" vehicle="t_0" depart="2232.00" arrival="2468.00" arrivalPos="83.20" duration="236.00" routeLength="643.34" timeLoss="57.00"/>
    </personinfo>
    <personinfo id="23" depart="2390.00" type="DEFAULT_PEDTYPE" speedFactor="0.96" duration="224.00" waitingTime="55.00" timeLoss="47.33" traveltime="169.00">
        <ride waitingTime="55.00" vehicle="t_1" depart="2445.00" arrival="2614.00" arrivalPos="83.20" duration="169.00" routeLength="577.43" timeLoss="47.33"/>
    </personinfo>
    <personinfo id="25" depart="2496.00" type="DEFAULT_PEDTYPE" speedFactor="1.05" duration="146.00" waitingTime="32.00" timeLoss="27.02" traveltime="114.00">
        <ride waitingTime="32.00" vehicle="t_0" depart="2528.00" arrival="2642.00" arrivalPos="0.20" duration="114.00" routeLength="287.47" timeLoss="27.02"/>
    </personinfo>
    <personinfo id="24" depart="2470.00" type="DEFAULT_PEDTYPE" speedFactor="0.92" duration="231.00" waitingTime="59.00" timeLoss="10.53" traveltime="172.00">
        <ride waitingTime="59.00" vehicle="t_1" depart="2529.00" arrival="2701.00" arrivalPos="79.20" duration="172.00" routeLength="352.26" timeLoss="10.53"/>
    </personinfo>
    <personinfo id="26" depart="2568.00" type="DEFAULT_PEDTYPE" speedFactor="0.94" duration="327.00" waitingTime="184.00" timeLoss="41.87" traveltime="143.00">
        <ride waitingTime="184.00" vehicle="t_0" depart="2752.00" arrival="2895.00" arrivalPos="79.20" duration="143.00" routeLength="453.03" timeLoss="41.87"/>
    </personinfo>
    <personinfo id="27" depart="2760.00" type="DEFAULT_PEDTYPE" speedFactor="0.82" duration="253.00" waitingTime="83.00" timeLoss="73.44" traveltime="170.00">
        <ride waitingTime="83.00" vehicle="t_1" depart="2843.00" arrival="3013.00" arrivalPos="78.65" duration="170.00" routeLength="386.56" timeLoss="73.44"/>
    </personinfo>
    <personinfo id="28" depart="2841.00" type="DEFAULT_PEDTYPE" speedFactor="1.05" duration="368.00" waitingTime="225.00" timeLoss="41.52" traveltime="143.00">
        <ride waitingTime="225.00" vehicle="t_1" depart="3066.00" arrival="3209.00" arrivalPos="79.20" duration="143.00" routeLength="434.40" timeLoss="41.52"/>
    </personinfo>
    <personinfo id="30" depart="3067.00" type="DEFAULT_PEDTYPE" speedFactor="0.97" duration="173.00" waitingTime="45.00" timeLoss="8.62" traveltime="128.00">
        <ride waitingTime="45.00" vehicle="t_0" depart="3112.00" arrival="3240.00" arrivalPos="78.65" duration="128.00" routeLength="449.66" timeLoss="8.62"/>
    </personinfo>
    <personinfo id="29" depart="2865.00" type="DEFAULT_PEDTYPE" speedFactor="1.06" duration="461.00" waitingTime="201.00" timeLoss="75.91" traveltime="260.00">
        <ride waitingTime="201.00" vehicle="t_1" depart="3066.00" arrival="3326.00" arrivalPos="83.20" duration="260.00" routeLength="622.27" timeLoss="75.91"/>
    </personinfo>
    <personinfo id="31" depart="3148.00" type="DEFAULT_PEDTYPE" speedFactor="1.00" duration="267.00" waitingTime="153.00" timeLoss="27.40" traveltime="114.00">
        <ride waitingTime="153.00" vehicle="t_0" depart="3301.00" arrival="3415.00" arrivalPos="78.65" duration="114.00" routeLength="264.83" timeLoss="27.40"/>
    </personinfo>
    <personinfo id="35" depart="3346.00" type="DEFAULT_PEDTYPE" speedFactor="0.93" duration="141.00" waitingTime="49.00" timeLoss="5.40" traveltime="92.00">
        <ride waitingTime="49.00" vehicle="t_1" depart="3395.00" arrival="3487.00" arrivalPos="79.20" duration="92.00" routeLength="261.02" timeLoss="5.40"/>
    </personinfo>
    <personinfo id="32" depart="3175.00" type="DEFAULT_PEDTYPE" speedFactor="0.85" duration="457.00" waitingTime="262.00" timeLoss="99.71" traveltime="195.00">
        <ride waitingTime="262.00" vehicle="t_0" depart="3437.00" arrival="3632.00" arrivalPos="78.65" duration="195.00" routeLength="368.81" timeLoss="99.71"/>
    </personinfo>
    <personinfo id="36" depart="3566.00" type="DEFAULT_PEDTYPE" speedFactor="0.93" duration="210.00" waitingTime="62.00" timeLoss="49.17" traveltime="148.00">
        <ride waitingTime="62.00" vehicle="t_1" depart="3628.00" arrival="3776.00" arrivalPos="78.65" duration="148.00" routeLength="387.89" timeLoss="49.17"/>
    </personinfo>
    <personinfo id="33" depart="3244.00" type="DEFAULT_PEDTYPE" speedFactor="0.87" duration="656.00" waitingTime="506.00" timeLoss="46.04" traveltime="150.00">
        <ride waitingTime="506.00" vehicle="t_0" depart="3750.00" arrival="3900.00" arrivalPos="78.65" duration="150.00" routeLength="439.76" timeLoss="46.04"/>
    </personinfo>
    <personinfo id="34" depart="3270.00" type="DEFAULT_PEDTYPE" speedFactor="0.88" duration="778.00" waitingTime="509.00" timeLoss="88.41" traveltime="269.00">
        <ride waitingTime="509.00" vehicle="t_0" depart="3779.00" arrival="4048.00" arrivalPos="83.20" duration="269.00" routeLength="572.41" timeLoss="88.41"/>
    </personinfo>
    <personinfo id="37" depart="3780.00" type="DEFAULT_PEDTYPE" speedFactor="1.16" duration="299.00" waitingTime="126.00" timeLoss="46.56" traveltime="173.00">
        <ride waitingTime="126.00" vehicle="t_1" depart="3906.00" arrival="4079.00" arrivalPos="83.20" duration="173.00" routeLength="789.98" timeLoss="46.56"/>
    </personinfo>
    <personinfo id="39" depart="4044.00" type="DEFAULT_PEDTYPE" speedFactor="1.03" duration="196.00" waitingTime="104.00" timeLoss="6.44" traveltime="92.00">
        <ride waitingTime="104.00" vehicle="t_0" depart="4148.00" arrival="4240.00" arrivalPos="83.20" duration="92.00" routeLength="262.19" timeLoss="6.44"/>
    </personinfo>
    <personinfo id="38" depart="3965.00" type="DEFAULT_PEDTYPE" speedFactor="1.00" duration="294.00" waitingTime="149.00" timeLoss="57.05" traveltime="145.00">
        <ride waitingTime="149.00" vehicle="t_1" depart="4114.00" arrival="4259.00" arrivalPos="79.20" duration="145.00" routeLength="280.71" timeLoss="57.05"/>
    </personinfo>
    <personinfo id="40" depart="4118.00" type="DEFAULT_PEDTYPE" speedFactor="0.86" duration="282.00" waitingTime="170.00" timeLoss="5.52" traveltime="112.00">
        <ride waitingTime="170.00" vehicle="t_1" depart="4288.00" arrival="4400.00" arrivalPos="0.20" duration="112.00" routeLength="255.28" timeLoss="5.52"/>
    </personinfo>
    <personinfo id="41" depart="4333.00" type="DEFAULT_PEDTYPE" speedFactor="1.04" duration="244.00" waitingTime="128.00" timeLoss="23.64" traveltime="116.00">
        <ride waitingTime="128.00" vehicle="t_1" depart="4461.00" arrival="4577.00" arrivalPos="0.20" duration="116.00" routeLength="290.30" timeLoss="23.64"/>
    </personinfo>
    <personinfo id="42" depart="4358.00" type="DEFAULT_PEDTYPE" speedFactor="1.20" duration="306.00" waitingTime="100.00" timeLoss="97.69" traveltime="206.00">
        <ride waitingTime="100.00" vehicle="t_0" depart="4458.00" arrival="4664.00" arrivalPos="78.65" duration="206.00" routeLength="564.37" timeLoss="97.69"/>
    </personinfo>
    <personinfo id="43" depart="4438.00" type="DEFAULT_PEDTYPE" speedFactor="0.93" duration="226.00" waitingTime="35.00" timeLoss="28.55" traveltime="191.00">
        <ride waitingTime="35.00" vehicle="t_1" depart="4473.00" arrival="4664.00" arrivalPos="79.20" duration="191.00" routeLength="406.39" timeLoss="28.55"/>
    </personinfo>
    <personinfo id="44" depart="4461.00" type="DEFAULT_PEDTYPE" speedFactor="1.04" duration="407.00" waitingTime="271.00" timeLoss="33.22" traveltime="136.00">
        <ride waitingTime="271.00" vehicle="t_0" depart="4732.00" arrival="4868.00" arrivalPos="78.65" duration="136.00" routeLength="464.31" timeLoss="33.22"/>
    </personinfo>
    <personinfo id="45" depart="4680.00" type="DEFAULT_PEDTYPE" speedFactor="0.88" duration="300.00" waitingTime="109.00" timeLoss="81.40" traveltime="191.00">
        <ride waitingTime="109.00" vehicle="t_1" depart="4789.00" arrival="4980.00" arrivalPos="83.20" duration="191.00" routeLength="553.34" timeLoss="81.40"/>
    </personinfo>
    <personinfo id="46" depart="4872.00" type="DEFAULT_PEDTYPE" speedFactor="1.14" duration="191.00" waitingTime="87.00" timeLoss="10.36" traveltime="104.00">
        <ride waitingTime="87.00" vehicle="t_0" depart="4959.00" arrival="5063.00" arrivalPos="0.20" duration="104.00" routeLength="311.94" timeLoss="10.36"/>
    </personinfo>
    <personinfo id="47" depart="4953.00" type="DEFAULT_PEDTYPE" speedFactor="1.11" duration="263.00" waitingTime="40.00" timeLoss="57.36" traveltime="223.00">
        <ride waitingTime="40.00" vehicle="t_0" depart="4993.00" arrival="5216.00" arrivalPos="83.20" duration="223.00" routeLength="418.90" timeLoss="57.36"/>
    </personinfo>
    <personinfo id="48" depart="5024.00" type="DEFAULT_PEDTYPE" speedFactor="0.94" duration="201.00" waitingTime="66.00" timeLoss="40.37" traveltime="135.00">
        <ride waitingTime="66.00" vehicle="t_1" depart="5090.00" arrival="5225.00" arrivalPos="79.20" duration="135.00" routeLength="340.18" timeLoss="40.37"/>
    </personinfo>
    <personinfo id="52" depart="5122.00" type="DEFAULT_PEDTYPE" speedFactor="0.98" duration="278.00" waitingTime="132.00" timeLoss="46.46" traveltime="146.00">
        <ride waitingTime="132.00" vehicle="t_0" depart="5254.00" arrival="5400.00" arrivalPos="78.65" duration="146.00" routeLength="362.19" timeLoss="46.46"/>
    </personinfo>
    <personinfo id="49" depart="5047.00" type="DEFAULT_PEDTYPE" speedFactor="1.02" duration="526.00" waitingTime="245.00" timeLoss="127.81" traveltime="281.00">
        <ride waitingTime="245.00" vehicle="t_1" depart="5292.00" arrival="5573.00" arrivalPos="78.65" duration="281.00" routeLength="951.06" timeLoss="127.81"/>
    </personinfo>
    <personinfo id="53" depart="5149.00" type="DEFAULT_PEDTYPE" speedFactor="1.13" duration="461.00" waitingTime="348.00" timeLoss="4.44" traveltime="113.00">
        <ride waitingTime="348.00" vehicle="t_0" depart="5497.00" arrival="5610.00" arrivalPos="78.65" duration="113.00" routeLength="162.23" timeLoss="4.44"/>
    </personinfo>
    <personinfo id="50" depart="5075.00" type="DEFAULT_PEDTYPE" speedFactor="0.94" duration="675.00" waitingTime="286.00" timeLoss="126.86" traveltime="389.00">
        <ride waitingTime="286.00" vehicle="t_1" depart="5361.00" arrival="5750.00" arrivalPos="83.20" duration="389.00" routeLength="939.83" timeLoss="126.86"/>
    </personinfo>
    <personinfo id="54" depart="5337.00" type="DEFAULT_PEDTYPE" speedFactor="1.04" duration="448.00" waitingTime="366.00" timeLoss="3.49" traveltime="82.00">
        <ride waitingTime="366.00" vehicle="t_0" depart="5703.00" arrival="5785.00" arrivalPos="83.20" duration="82.00" routeLength="164.00" timeLoss="3.49"/>
    </personinfo>
    <personinfo id="51" depart="5098.00" type="DEFAULT_PEDTYPE" speedFactor="0.97" duration="748.00" waitingTime="357.00" timeLoss="77.09" traveltime="391.00">
        <ride waitingTime="357.00" vehicle="t_1" depart="5455.00" arrival="5846.00" arrivalPos="79.20" duration="391.00" routeLength="823.46" timeLoss="77.09"/>
    </personinfo>
    <personinfo id="55" depart="5543.00" type="DEFAULT_PEDTYPE" speedFactor="1.00" duration="399.00" waitingTime="261.00" timeLoss="47.02" traveltime="138.00">
        <ride waitingTime="261.00" vehicle="t_0" depart="5804.00" arrival="5942.00" arrivalPos="78.65" duration="138.00" routeLength="299.45" timeLoss="47.02"/>
    </personinfo>
    <personinfo id="57" depart="5680.00" type="DEFAULT_PEDTYPE" speedFactor="0.99" duration="365.00" waitingTime="268.00" timeLoss="8.73" traveltime="97.00">
        <ride waitingTime="268.00" vehicle="t_1" depart="5948.00" arrival="6045.00" arrivalPos="0.20" duration="97.00" routeLength="282.54" timeLoss="8.73"/>
    </personinfo>
    <personinfo id="58" depart="5869.00" type="DEFAULT_PEDTYPE" speedFactor="1.01" duration="260.00" waitingTime="92.00" timeLoss="63.44" traveltime="168.00">
        <ride waitingTime="92.00" vehicle="t_0" depart="5961.00" arrival="6129.00" arrivalPos="83.20" duration="168.00" routeLength="555.67" timeLoss="63.44"/>
    </personinfo>
    <personinfo id="56" depart="5612.00" type="DEFAULT_PEDTYPE" speedFactor="1.04" duration="556.00" waitingTime="271.00" timeLoss="80.24" traveltime="285.00">
        <ride waitingTime="271.00" vehicle="t_1" depart="5883.00" arrival="6168.00" arrivalPos="83.20" duration="285.00" routeLength="842.16" timeLoss="80.24"/>
    </personinfo>
    <personinfo id="60" depart="6120.00" type="DEFAULT_PEDTYPE" speedFactor="1.17" duration="123.00" waitingTime="38.00" timeLoss="6.93" traveltime="85.00">
        <ride waitingTime="38.00" vehicle="t_0" depart="6158.00" arrival="6243.00" arrivalPos="0.20" duration="85.00" routeLength="176.33" timeLoss="6.93"/>
    </personinfo>
    <personinfo id="59" depart="6051.00" type="DEFAULT_PEDTYPE" speedFactor="1.00" duration="291.00" waitingTime="107.00" timeLoss="15.42" traveltime="184.00">
        <ride waitingTime="107.00" vehicle="t_0" depart="6158.00" arrival="6342.00" arrivalPos="83.20" duration="184.00" routeLength="460.71" timeLoss="15.42"/>
    </personinfo>
    <personinfo id="61" depart="6319.00" type="DEFAULT_PEDTYPE" speedFactor="0.97" duration="291.00" waitingTime="98.00" timeLoss="90.22" traveltime="193.00">
        <ride waitingTime="98.00" vehicle="t_1" depart="6417.00" arrival="6610.00" arrivalPos="83.20" duration="193.00" routeLength="457.28" timeLoss="90.22"/>
    </personinfo>
    <personinfo id="62" depart="6536.00" type="DEFAULT_PEDTYPE" speedFactor="1.00" duration="174.00" waitingTime="27.00" timeLoss="53.58" traveltime="147.00">
        <ride waitingTime="27.00" vehicle="t_0" depart="6563.00" arrival="6710.00" arrivalPos="83.20" duration="147.00" routeLength="350.28" timeLoss="53.58"/>
    </personinfo>
    <personinfo id="64" depart="6678.00" type="DEFAULT_PEDTYPE" speedFactor="0.78" duration="192.00" waitingTime="46.00" timeLoss="48.51" traveltime="146.00">
        <ride waitingTime="46.00" vehicle="t_1" depart="6724.00" arrival="6870.00" arrivalPos="79.20" duration="146.00" routeLength="376.21" timeLoss="48.51"/>
    </personinfo>
    <personinfo id="63" depart="6608.00" type="DEFAULT_PEDTYPE" speedFactor="1.16" duration="294.00" waitingTime="134.00" timeLoss="57.59" traveltime="160.00">
        <ride waitingTime="134.00" vehicle="t_0" depart="6742.00" arrival="6902.00" arrivalPos="78.65" duration="160.00" routeLength="452.07" timeLoss="57.59"/>
    </personinfo>
    <personinfo id="65" depart="6751.00" type="DEFAULT_PEDTYPE" speedFactor="0.83" duration="310.00" waitingTime="196.00" timeLoss="24.01" traveltime="114.00">
        <ride waitingTime="196.00" vehicle="t_1" depart="6947.00" arrival="7061.00" arrivalPos="79.20" duration="114.00" routeLength="305.39" timeLoss="24.01"/>
    </personinfo>
    <personinfo id="66" depart="6933.00" type="DEFAULT_PEDTYPE" speedFactor="1.06" duration="214.00" waitingTime="109.00" timeLoss="10.50" traveltime="105.00">
        <ride waitingTime="109.00" vehicle="t_0" depart="7042.00" arrival="7147.00" arrivalPos="78.65" duration="105.00" routeLength="342.26" timeLoss="10.50"/>
    </personinfo>
    <personinfo id="67" depart="6956.00" type="DEFAULT_PEDTYPE" speedFactor="1.09" duration="301.00" waitingTime="207.00" timeLoss="7.34" traveltime="94.00">
        <ride waitingTime="207.00" vehicle="t_1" depart="7163.00" arrival="7257.00" arrivalPos="79.20" duration="94.00" routeLength="246.34" timeLoss="7.34"/>
    </personinfo>
    <personinfo id="68" depart="6979.00" type="DEFAULT_PEDTYPE" speedFactor="1.02" duration="432.00" waitingTime="327.00" timeLoss="10.99" traveltime="105.00">
        <ride waitingTime="327.00" vehicle="t_0" depart="7306.00" arrival="7411.00" arrivalPos="79.20" duration="105.00" routeLength="376.30" timeLoss="10.99"/>
    </personinfo>
    <personinfo id="70" depart="7120.00" type="DEFAULT_PEDTYPE" speedFactor="0.99" duration="379.00" waitingTime="232.00" timeLoss="46.07" traveltime="147.00">
        <ride waitingTime="232.00" vehicle="t_1" depart="7352.00" arrival="7499.00" arrivalPos="83.20" duration="147.00" routeLength="442.72" timeLoss="46.07"/>
    </personinfo>
    <personinfo id="69" depart="7049.00" type="DEFAULT_PEDTYPE" speedFactor="1.08" duration="541.00" waitingTime="382.00" timeLoss="8.90" traveltime="159.00">
        <ride waitingTime="382.00" vehicle="t_0" depart="7431.00" arrival="7590.00" arrivalPos="78.65" duration="159.00" routeLength="345.35" timeLoss="8.90"/>
    </personinfo>
    <personinfo id="71" depart="7304.00" type="DEFAULT_PEDTYPE" speedFactor="0.95" duration="317.00" waitingTime="231.00" timeLoss="5.38" traveltime="86.00">
        <ride waitingTime="231.00" vehicle="t_1" depart="7535.00" arrival="7621.00" arrivalPos="83.20" duration="86.00" routeLength="199.34" timeLoss="5.38"/>
    </personinfo>
    <personinfo id="75" depart="7449.00" type="DEFAULT_PEDTYPE" speedFactor="1.16" duration="239.00" waitingTime="10.00" timeLoss="23.15" traveltime="229.00">
        <ride waitingTime="10.00" vehicle="t_0" depart="7459.00" arrival="7688.00" arrivalPos="79.20" duration="229.00" routeLength="306.08" timeLoss="23.15"/>
    </personinfo>
    <personinfo id="76" depart="7521.00" type="DEFAULT_PEDTYPE" speedFactor="1.04" duration="299.00" waitingTime="192.00" timeLoss="5.51" traveltime="107.00">
        <ride waitingTime="192.00" vehicle="t_0" depart="7713.00" arrival="7820.00" arrivalPos="83.20" duration="107.00" routeLength="253.78" timeLoss="5.51"/>
    </personinfo>
    <personinfo id="72" depart="7332.00" type="DEFAULT_PEDTYPE" speedFactor="1.21" duration="508.00" waitingTime="372.00" timeLoss="27.58" traveltime="136.00">
        <ride waitingTime="372.00" vehicle="t_1" depart="7704.00" arrival="7840.00" arrivalPos="83.20" duration="136.00" routeLength="445.24" timeLoss="27.58"/>
    </personinfo>
    <personinfo id="73" depart="7355.00" type="DEFAULT_PEDTYPE" speedFactor="0.92" duration="652.00" waitingTime="393.00" timeLoss="40.47" traveltime="259.00">
        <ride waitingTime="393.00" vehicle="t_1" depart="7748.00" arrival="8007.00" arrivalPos="83.20" duration="259.00" routeLength="1017.71" timeLoss="40.47"/>
    </personinfo>
    <personinfo id="77" depart="7727.00" type="DEFAULT_PEDTYPE" speedFactor="0.96" duration="313.00" waitingTime="143.00" timeLoss="47.13" traveltime="170.00">
        <ride waitingTime="143.00" vehicle="t_0" depart="7870.00" arrival="8040.00" arrivalPos="83.20" duration="170.00" routeLength="648.09" timeLoss="47.13"/>
    </personinfo>
    <personinfo id="78" depart="7751.00" type="DEFAULT_PEDTYPE" speedFactor="1.02" duration="402.00" waitingTime="105.00" timeLoss="57.14" traveltime="297.00">
        <ride waitingTime="105.00" vehicle="t_0" depart="7856.00" arrival="8153.00" arrivalPos="83.20" duration="297.00" routeLength="1251.88" timeLoss="57.14"/>
    </personinfo>
    <personinfo id="74" depart="7382.00" type="DEFAULT_PEDTYPE" speedFactor="1.10" duration="868.00" waitingTime="518.00" timeLoss="91.75" traveltime="350.00">
        <ride waitingTime="518.00" vehicle="t_1" depart="7900.00" arrival="8250.00" arrivalPos="78.65" duration="350.00" routeLength="637.01" timeLoss="91.75"/>
    </personinfo>
    <personinfo id="79" depart="7953.00" type="DEFAULT_PEDTYPE" speedFactor="0.99" duration="336.00" waitingTime="260.00" timeLoss="2.96" traveltime="76.00">
        <ride waitingTime="260.00" vehicle="t_0" depart="8213.00" arrival="8289.00" arrivalPos="78.65" duration="76.00" routeLength="94.93" timeLoss="2.96"/>
    </personinfo>
    <personinfo id="81" depart="8162.00" type="DEFAULT_PEDTYPE" speedFactor="1.02" duration="238.00" waitingTime="114.00" timeLoss="21.70" traveltime="124.00">
        <ride waitingTime="114.00" vehicle="t_1" depart="8276.00" arrival="8400.00" arrivalPos="78.65" duration="124.00" routeLength="447.23" timeLoss="21.70"/>
    </personinfo>
    <personinfo id="80" depart="7976.00" type="DEFAULT_PEDTYPE" speedFactor="0.86" duration="504.00" waitingTime="355.00" timeLoss="8.08" traveltime="149.00">
        <ride waitingTime="355.00" vehicle="t_0" depart="8331.00" arrival="8480.00" arrivalPos="79.20" duration="149.00" routeLength="372.75" timeLoss="8.08"/>
    </personinfo>
    <personinfo id="82" depart="8185.00" type="DEFAULT_PEDTYPE" speedFactor="1.13" duration="375.00" waitingTime="240.00" timeLoss="26.55" traveltime="135.00">
        <ride waitingTime="240.00" vehicle="t_1" depart="8425.00" arrival="8560.00" arrivalPos="0.20" duration="135.00" routeLength="278.56" timeLoss="26.55"/>
    </personinfo>
    <personinfo id="83" depart="8210.00" type="DEFAULT_PEDTYPE" speedFactor="0.81" duration="398.00" waitingTime="303.00" timeLoss="7.72" traveltime="95.00">
        <ride waitingTime="303.00" vehicle="t_0" depart="8513.00" arrival="8608.00" arrivalPos="79.20" duration="95.00" routeLength="271.40" timeLoss="7.72"/>
    </personinfo>
    <personinfo id="85" depart="8491.00" type="DEFAULT_PEDTYPE" speedFactor="1.03" duration="227.00" waitingTime="111.00" timeLoss="21.03" traveltime="116.00">
        <ride waitingTime="111.00" vehicle="t_1" depart="8602.00" arrival="8718.00" arrivalPos="0.20" duration="116.00" routeLength="302.59" timeLoss="21.03"/>
    </personinfo>