<?xml version="1.0" encoding="UTF-8"?>

<!-- generated on 2026-03-21T15:58:07.917166+08:00 by Eclipse SUMO sumo 1.26.0
<sumoConfiguration xmlns:xsi="http://www.w3.org/2001/XMLSchema-instance" xsi:noNamespaceSchemaLocation="http://sumo.dlr.de/xsd/sumoConfiguration.xsd">

    <input>
        <net-file value="..\SmallTestingMap\map.net.xml"/>
        <route-files value="..\SmallTestingMap\map.rou.xml,..\SmallTestingMap\persontrips_scale.rou.xml"/>
    </input>

    <output>
        <tripinfo-output value="..\SmallTestingMap\tripinfos.xml"/>
        <stop-output value="..\SmallTestingMap\stopinfos.xml"/>
        <statistic-output value="..\SmallTestingMap\stats.xml"/>
    </output>

    <time>
        <step-length value="1.0"/>
    </time>

    <report>
        <verbose value="true"/>
        <duration-log.statistics value="true"/>
        <no-step-log value="true"/>
    </report>

    <taxi_device>
        <device.taxi.dispatch-algorithm value="traci"/>
    </taxi_device>

    <traci_server>
        <remote-port value="59523"/>
    </traci_server>

</sumoConfiguration>
-->

<tripinfos xmlns:xsi="http://www.w3.org/2001/XMLSchema-instance" xsi:noNamespaceSchemaLocation="http://sumo.dlr.de/xsd/tripinfo_file.xsd">
    <personinfo id="1" depart="25.00" type="DEFAULT_PEDTYPE" speedFactor="1.08" duration="165.00" waitingTime="32.00" timeLoss="10.16" traveltime="133.00">
        <ride waitingTime="32.00" vehicle="t_0" depart="57.00" arrival="190.00" arrivalPos="83.20" duration="133.00" routeLength="551.75" timeLoss="10.16"/>
    </personinfo>
    <personinfo id="0" depart="0.00" type="DEFAULT_PEDTYPE" speedFactor="1.01" duration="220.00" waitingTime="61.00" timeLoss="6.69" traveltime="159.00">
        <ride waitingTime="61.00" vehicle="t_1" depart="61.00" arrival="220.00" arrivalPos="0.20" duration="159.00" routeLength="213.44" timeLoss="6.69"/>
    </personinfo>
    <personinfo id="3" depart="75.00" type="DEFAULT_PEDTYPE" speedFactor="0.94" duration="246.00" waitingTime="165.00" timeLoss="47.82" traveltime="81.00">
        <ride waitingTime="165.00" vehicle="t_0" depart="240.00" arrival="321.00" arrivalPos="4.99" duration="81.00" routeLength="377.50" timeLoss="47.82"/>
    </personinfo>
    <personinfo id="2" depart="50.00" type="DEFAULT_PEDTYPE" speedFactor="0.94" duration="341.00" waitingTime="206.00" timeLoss="38.62" traveltime="135.00">
        <ride waitingTime="206.00" vehicle="t_1" depart="256.00" arrival="391.00" arrivalPos="83.20" duration="135.00" routeLength="291.67" timeLoss="38.62"/>
    </personinfo>
    <personinfo id="8" depart="200.00" type="DEFAULT_PEDTYPE" speedFactor="0.89" duration="235.00" waitingTime="135.00" timeLoss="21.71" traveltime="100.00">
        <ride waitingTime="135.00" vehicle="t_0" depart="335.00" arrival="435.00" arrivalPos="0.20" duration="100.00" routeLength="199.96" timeLoss="21.71"/>
    </personinfo>
    <personinfo id="4" depart="100.00" type="DEFAULT_PEDTYPE" speedFactor="1.16" duration="435.00" waitingTime="175.00" timeLoss="91.37" traveltime="260.00">
        <ride waitingTime="175.00" vehicle="t_1" depart="275.00" arrival="535.00" arrivalPos="79.20" duration="260.00" routeLength="449.73" timeLoss="91.37"/>
    </personinfo>
    <personinfo id="10" depart="250.00" type="DEFAULT_PEDTYPE" speedFactor="0.87" duration="390.00" waitingTime="299.00" timeLoss="4.15" traveltime="91.00">
        <ride waitingTime="299.00" vehicle="t_0" depart="549.00" arrival="640.00" arrivalPos="78.65" duration="91.00" routeLength="273.62" timeLoss="4.15"/>
    </personinfo>
    <personinfo id="6" depart="150.00" type="DEFAULT_PEDTYPE" speedFactor="1.01" duration="503.00" waitingTime="403.00" timeLoss="9.05" traveltime="100.00">
        <ride waitingTime="403.00" vehicle="t_1" depart="553.00" arrival="653.00" arrivalPos="78.65" duration="100.00" routeLength="306.35" timeLoss="9.05"/>
    </personinfo>
    <personinfo id="25" depart="625.00" type="DEFAULT_PEDTYPE" speedFactor="0.97" duration="258.00" waitingTime="159.00" timeLoss="19.63" traveltime="99.00">
        <ride waitingTime="159.00" vehicle="t_0" depart="784.00" arrival="883.00" arrivalPos="78.65" duration="99.00" routeLength="180.13" timeLoss="19.63"/>
    </personinfo>
    <personinfo id="18" depart="450.00" type="DEFAULT_PEDTYPE" speedFactor="1.13" duration="454.00" waitingTime="231.00" timeLoss="79.47" traveltime="223.00">
        <ride waitingTime="231.00" vehicle="t_1" depart="681.00" arrival="904.00" arrivalPos="79.20" duration="223.00" routeLength="929.79" timeLoss="79.47"/>
    </personinfo>
    <personinfo id="20" depart="500.00" type="DEFAULT_PEDTYPE" speedFactor="0.97" duration="451.00" waitingTime="257.00" timeLoss="69.65" traveltime="194.00">
        <ride waitingTime="257.00" vehicle="t_1" depart="757.00" arrival="951.00" arrivalPos="5.00" duration="194.00" routeLength="665.23" timeLoss="69.65"/>
    </personinfo>
    <personinfo id="23" depart="575.00" type="DEFAULT_PEDTYPE" speedFactor="0.90" duration="473.00" waitingTime="377.00" timeLoss="6.29" traveltime="96.00">
        <ride waitingTime="377.00" vehicle="t_1" depart="952.00" arrival="1048.00" arrivalPos="0.20" duration="96.00" routeLength="292.49" timeLoss="6.29"/>
    </personinfo>
    <personinfo id="27" depart="675.00" type="DEFAULT_PEDTYPE" speedFactor="1.27" duration="448.00" waitingTime="322.00" timeLoss="26.81" traveltime="126.00">
        <ride waitingTime="322.00" vehicle="t_0" depart="997.00" arrival="1123.00" arrivalPos="83.20" duration="126.00" routeLength="353.87" timeLoss="26.81"/>
    </personinfo>
    <personinfo id="37" depart="925.00" type="DEFAULT_PEDTYPE" speedFactor="0.85" duration="272.00" waitingTime="153.00" timeLoss="22.82" traveltime="119.00">
        <ride waitingTime="153.00" vehicle="t_1" depart="1078.00" arrival="1197.00" arrivalPos="79.20" duration="119.00" routeLength="316.46" timeLoss="22.82"/>
    </personinfo>
    <personinfo id="5" depart="125.00" type="DEFAULT_PEDTYPE" speedFactor="1.02" duration="1152.00" waitingTime="197.00" timeLoss="391.65" traveltime="955.00">
        <ride waitingTime="197.00" vehicle="t_0" depart="322.00" arrival="1277.00" arrivalPos="83.20" duration="955.00" routeLength="2633.65" timeLoss="391.65"/>
    </personinfo>
    <personinfo id="35" depart="875.00" type="DEFAULT_PEDTYPE" speedFactor="1.07" duration="472.00" waitingTime="216.00" timeLoss="71.51" traveltime="256.00">
        <ride waitingTime="216.00" vehicle="t_1" depart="1091.00" arrival="1347.00" arrivalPos="79.20" duration="256.00" routeLength="670.85" timeLoss="71.51"/>
    </personinfo>
    <personinfo id="38" depart="950.00" type="DEFAULT_PEDTYPE" speedFactor="0.98" duration="412.00" waitingTime="91.00" timeLoss="59.44" traveltime="321.00">
        <ride waitingTime="91.00" vehicle="t_0" depart="1041.00" arrival="1362.00" arrivalPos="79.20" duration="321.00" routeLength="876.65" timeLoss="59.44"/>
    </personinfo>
    <personinfo id="39" depart="975.00" type="DEFAULT_PEDTYPE" speedFactor="0.91" duration="553.00" waitingTime="435.00" timeLoss="23.49" traveltime="118.00">
        <ride waitingTime="435.00" vehicle="t_1" depart="1410.00" arrival="1528.00" arrivalPos="0.20" duration="118.00" routeLength="382.60" timeLoss="23.49"/>
    </personinfo>
    <personinfo id="52" depart="1300.00" type="DEFAULT_PEDTYPE" speedFactor="0.91" duration="264.00" waitingTime="141.00" timeLoss="27.07" traveltime="123.00">
        <ride waitingTime="141.00" vehicle="t_0" depart="1441.00" arrival="1564.00" arrivalPos="83.20" duration="123.00" routeLength="353.01" timeLoss="27.07"/>
    </personinfo>
    <personinfo id="53" depart="1325.00" type="DEFAULT_PEDTYPE" speedFactor="0.96" duration="369.00" waitingTime="256.00" timeLoss="24.97" traveltime="113.00">
        <ride waitingTime="256.00" vehicle="t_1" depart="1581.00" arrival="1694.00" arrivalPos="78.65" duration="113.00" routeLength="273.63" timeLoss="24.97"/>
    </personinfo>
    <personinfo id="12" depart="300.00" type="DEFAULT_PEDTYPE" speedFactor="1.12" duration="1630.00" waitingTime="427.00" timeLoss="439.86" traveltime="1203.00">
        <ride waitingTime="427.00" vehicle="t_0" depart="727.00" arrival="1930.00" arrivalPos="83.20" duration="1203.00" routeLength="4288.44" timeLoss="439.86"/>
    </personinfo>
    <personinfo id="55" depart="1375.00" type="DEFAULT_PEDTYPE" speedFactor="1.08" duration="577.00" waitingTime="343.00" timeLoss="70.38" traveltime="234.00">
        <ride waitingTime="343.00" vehicle="t_0" depart="1718.00" arrival="1952.00" arrivalPos="5.00" duration="234.00" routeLength="1135.73" timeLoss="70.38"/>
    </personinfo>
    <personinfo id="68" depart="1700.00" type="DEFAULT_PEDTYPE" speedFactor="1.11" duration="306.00" waitingTime="134.00" timeLoss="43.79" traveltime="172.00">
        <ride waitingTime="134.00" vehicle="t_1" depart="1834.00" arrival="2006.00" arrivalPos="83.20" duration="172.00" routeLength="660.48" timeLoss="43.79"/>
    </personinfo>
    <personinfo id="70" depart="1750.00" type="DEFAULT_PEDTYPE" speedFactor="0.96" duration="367.00" waitingTime="157.00" timeLoss="15.08" traveltime="210.00">
        <ride waitingTime="157.00" vehicle="t_1" depart="1907.00" arrival="2117.00" arrivalPos="78.65" duration="210.00" routeLength="753.39" timeLoss="15.08"/>
    </personinfo>
    <personinfo id="71" depart="1775.00" type="DEFAULT_PEDTYPE" speedFactor="0.87" duration="368.00" waitingTime="178.00" timeLoss="31.70" traveltime="190.00">
        <ride waitingTime="178.00" vehicle="t_0" depart="1953.00" arrival="2143.00" arrivalPos="83.20" duration="190.00" routeLength="374.75" timeLoss="31.70"/>
    </personinfo>
    <personinfo id="74" depart="1850.00" type="DEFAULT_PEDTYPE" speedFactor="1.01" duration="373.00" waitingTime="185.00" timeLoss="11.93" traveltime="188.00">
        <ride waitingTime="185.00" vehicle="t_1" depart="2035.00" arrival="2223.00" arrivalPos="78.65" duration="188.00" routeLength="459.05" timeLoss="11.93"/>
    </personinfo>
    <personinfo id="83" depart="2075.00" type="DEFAULT_PEDTYPE" speedFactor="0.99" duration="215.00" waitingTime="129.00" timeLoss="3.79" traveltime="86.00">
        <ride waitingTime="129.00" vehicle="t_0" depart="2204.00" arrival="2290.00" arrivalPos="78.65" duration="86.00" routeLength="106.37" timeLoss="3.79"/>
    </personinfo>
    <personinfo id="73" depart="1825.00" type="DEFAULT_PEDTYPE" speedFactor="1.19" duration="557.00" waitingTime="350.00" timeLoss="17.35" traveltime="207.00">
        <ride waitingTime="350.00" vehicle="t_0" depart="2175.00" arrival="2382.00" arrivalPos="78.65" duration="207.00" routeLength="517.97" timeLoss="17.35"/>
    </personinfo>
    <personinfo id="82" depart="2050.00" type="DEFAULT_PEDTYPE" speedFactor="1.07" duration="365.00" waitingTime="195.00" timeLoss="76.67" traveltime="170.00">
        <ride waitingTime="195.00" vehicle="t_1" depart="2245.00" arrival="2415.00" arrivalPos="78.65" duration="170.00" routeLength="337.86" timeLoss="76.67"/>
    </personinfo>
    <personinfo id="65" depart="1625.00" type="DEFAULT_PEDTYPE" speedFactor="1.00" duration="881.00" waitingTime="192.00" timeLoss="105.65" traveltime="689.00">
        <ride waitingTime="192.00" vehicle="t_0" depart="1817.00" arrival="2506.00" arrivalPos="79.20" duration="689.00" routeLength="1972.64" timeLoss="105.65"/>
    </personinfo>
    <personinfo id="84" depart="2100.00" type="DEFAULT_PEDTYPE" speedFactor="1.08" duration="433.00" waitingTime="339.00" timeLoss="4.33" traveltime="94.00">
        <ride waitingTime="339.00" vehicle="t_1" depart="2439.00" arrival="2533.00" arrivalPos="78.65" duration="94.00" routeLength="287.82" timeLoss="4.33"/>
    </personinfo>
    <personinfo id="40" depart="1000.00" type="DEFAULT_PEDTYPE" speedFactor="1.01" duration="1602.00" waitingTime="382.00" timeLoss="319.80" traveltime="1220.00">
        <ride waitingTime="382.00" vehicle="t_0" depart="1382.00" arrival="2602.00" arrivalPos="83.20" duration="1220.00" routeLength="4158.48" timeLoss="319.80"/>
    </personinfo>
    <personinfo id="75" depart="1875.00" type="DEFAULT_PEDTYPE" speedFactor="1.01" duration="844.00" waitingTime="262.00" timeLoss="163.19" traveltime="582.00">
        <ride waitingTime="262.00" vehicle="t_1" depart="2137.00" arrival="2719.00" arrivalPos="83.20" duration="582.00" routeLength="1671.70" timeLoss="163.19"/>
    </personinfo>
    <personinfo id="101" depart="2525.00" type="DEFAULT_PEDTYPE" speedFactor="0.94" duration="209.00" waitingTime="118.00" timeLoss="5.07" traveltime="91.00">
        <ride waitingTime="118.00" vehicle="t_0" depart="2643.00" arrival="2734.00" arrivalPos="79.20" duration="91.00" routeLength="262.03" timeLoss="5.07"/>
    </personinfo>
    <personinfo id="94" depart="2350.00" type="DEFAULT_PEDTYPE" speedFactor="1.03" duration="453.00" waitingTime="267.00" timeLoss="12.46" traveltime="186.00">
        <ride waitingTime="267.00" vehicle="t_1" depart="2617.00" arrival="2803.00" arrivalPos="78.65" duration="186.00" routeLength="543.57" timeLoss="12.46"/>
    </personinfo>
    <personinfo id="103" depart="2575.00" type="DEFAULT_PEDTYPE" speedFactor="1.23" duration="299.00" waitingTime="180.00" timeLoss="33.07" traveltime="119.00">
        <ride waitingTime="180.00" vehicle="t_0" depart="2755.00" arrival="2874.00" arrivalPos="78.65" duration="119.00" routeLength="264.47" timeLoss="33.07"/>
    </personinfo>
    <personinfo id="69" depart="1725.00" type="DEFAULT_PEDTYPE" speedFactor="1.05" duration="1374.00" waitingTime="125.00" timeLoss="367.40" traveltime="1249.00">
        <ride waitingTime="125.00" vehicle="t_1" depart="1850.00" arrival="3099.00" arrivalPos="83.20" duration="1249.00" routeLength="3802.10" timeLoss="367.40"/>
    </personinfo>
    <personinfo id="115" depart="2875.00" type="DEFAULT_PEDTYPE" speedFactor="0.95" duration="305.00" waitingTime="147.00" timeLoss="64.35" traveltime="158.00">
        <ride waitingTime="147.00" vehicle="t_0" depart="3022.00" arrival="3180.00" arrivalPos="83.20" duration="158.00" routeLength="363.54" timeLoss="64.35"/>
    </personinfo>
    <personinfo id="111" depart="2775.00" type="DEFAULT_PEDTYPE" speedFactor="1.12" duration="460.00" waitingTime="156.00" timeLoss="128.99" traveltime="304.00">
        <ride waitingTime="156.00" vehicle="t_1" depart="2931.00" arrival="3235.00" arrivalPos="78.65" duration="304.00" routeLength="523.79" timeLoss="128.99"/>
    </personinfo>
    <personinfo id="119" depart="2975.00" type="DEFAULT_PEDTYPE" speedFactor="1.14" duration="359.00" waitingTime="276.00" timeLoss="3.81" traveltime="83.00">
        <ride waitingTime="276.00" vehicle="t_0" depart="3251.00" arrival="3334.00" arrivalPos="78.65" duration="83.00" routeLength="172.25" timeLoss="3.81"/>
    </personinfo>
    <personinfo id="126" depart="3150.00" type="DEFAULT_PEDTYPE" speedFactor="0.95" duration="287.00" waitingTime="198.00" timeLoss="3.67" traveltime="89.00">
        <ride waitingTime="198.00" vehicle="t_1" depart="3348.00" arrival="3437.00" arrivalPos="79.20" duration="89.00" routeLength="266.46" timeLoss="3.67"/>
    </personinfo>
    <personinfo id="85" depart="2125.00" type="DEFAULT_PEDTYPE" speedFactor="0.93" duration="1323.00" waitingTime="267.00" timeLoss="310.54" traveltime="1056.00">
        <ride waitingTime="267.00" vehicle="t_0" depart="2392.00" arrival="3448.00" arrivalPos="83.20" duration="1056.00" routeLength="3146.04" timeLoss="310.54"/>
    </personinfo>
    <personinfo id="89" depart="2225.00" type="DEFAULT_PEDTYPE" speedFactor="0.74" duration="1224.00" waitingTime="403.00" timeLoss="263.60" traveltime="821.00">
        <ride waitingTime="403.00" vehicle="t_0" depart="2628.00" arrival="3449.00" arrivalPos="83.20" duration="821.00" routeLength="2478.95" timeLoss="263.60"/>
    </personinfo>
    <personinfo id="132" depart="3300.00" type="DEFAULT_PEDTYPE" speedFactor="1.08" duration="283.00" waitingTime="194.00" timeLoss="7.34" traveltime="89.00">
        <ride waitingTime="194.00" vehicle="t_0" depart="3494.00" arrival="3583.00" arrivalPos="79.20" duration="89.00" routeLength="217.89" timeLoss="7.34"/>
    </personinfo>
    <personinfo id="98" depart="2450.00" type="DEFAULT_PEDTYPE" speedFactor="1.10" duration="1178.00" waitingTime="392.00" timeLoss="317.07" traveltime="786.00">
        <ride waitingTime="392.00" vehicle="t_1" depart="2842.00" arrival="3628.00" arrivalPos="78.65" duration="786.00" routeLength="2257.80" timeLoss="317.07"/>
    </personinfo>
    <personinfo id="128" depart="3200.00" type="DEFAULT_PEDTYPE" speedFactor="1.09" duration="526.00" waitingTime="272.00" timeLoss="62.73" traveltime="254.00">
        <ride waitingTime="272.00" vehicle="t_1" depart="3472.00" arrival="3726.00" arrivalPos="78.65" duration="254.00" routeLength="642.04" timeLoss="62.73"/>
    </personinfo>
    <personinfo id="140" depart="3500.00" type="DEFAULT_PEDTYPE" speedFactor="0.90" duration="266.00" waitingTime="153.00" timeLoss="28.99" traveltime="113.00">
        <ride waitingTime="153.00" vehicle="t_0" depart="3653.00" arrival="3766.00" arrivalPos="0.20" duration="113.00" routeLength="262.74" timeLoss="28.99"/>
    </personinfo>
    <personinfo id="136" depart="3400.00" type="DEFAULT_PEDTYPE" speedFactor="1.06" duration="402.00" waitingTime="237.00" timeLoss="11.99" traveltime="165.00">
        <ride waitingTime="237.00" vehicle="t_1" depart="3637.00" arrival="3802.00" arrivalPos="0.20" duration="165.00" routeLength="210.70" timeLoss="11.99"/>
    </personinfo>
    <personinfo id="139" depart="3475.00" type="DEFAULT_PEDTYPE" speedFactor="1.01" duration="445.00" waitingTime="259.00" timeLoss="11.77" traveltime="186.00">
        <ride waitingTime="259.00" vehicle="t_1" depart="3734.00" arrival="3920.00" arrivalPos="0.20" duration="186.00" routeLength="257.40" timeLoss="11.77"/>
    </personinfo>
    <personinfo id="134" depart="3350.00" type="DEFAULT_PEDTYPE" speedFactor="0.94" duration="602.00" waitingTime="270.00" timeLoss="119.19" traveltime="332.00">
        <ride waitingTime="270.00" vehicle="t_0" depart="3620.00" arrival="3952.00" arrivalPos="83.20" duration="332.00" routeLength="960.63" timeLoss="119.19"/>
    </personinfo>
    <personinfo id="142" depart="3550.00" type="DEFAULT_PEDTYPE" speedFactor="1.20" duration="426.00" waitingTime="282.00" timeLoss="34.88" traveltime="144.00">
        <ride waitingTime="282.00" vehicle="t_0" depart="3832.00" arrival="3976.00" arrivalPos="4.95" duration="144.00" routeLength="563.45" timeLoss="34.88"/>
    </personinfo>
    <personinfo id="150" depart="3750.00" type="DEFAULT_PEDTYPE" speedFactor="1.11" duration="270.00" waitingTime="200.00" timeLoss="3.85" traveltime="70.00">
        <ride waitingTime="200.00" vehicle="t_1" depart="3950.00" arrival="4020.00" arrivalPos="0.20" duration="70.00" routeLength="11.48" timeLoss="3.85"/>
    </personinfo>
    <personinfo id="151" depart="3775.00" type="DEFAULT_PEDTYPE" speedFactor="1.10" duration="369.00" waitingTime="202.00" timeLoss="9.67" traveltime="167.00">
        <ride waitingTime="202.00" vehicle="t_0" depart="3977.00" arrival="4144.00" arrivalPos="78.65" duration="167.00" routeLength="298.05" timeLoss="9.67"/>
    </personinfo>
    <personinfo id="138" depart="3450.00" type="DEFAULT_PEDTYPE" speedFactor="0.93" duration="775.00" waitingTime="382.00" timeLoss="100.54" traveltime="393.00">
        <ride waitingTime="382.00" vehicle="t_1" depart="3832.00" arrival="4225.00" arrivalPos="78.65" duration="393.00" routeLength="797.05" timeLoss="100.54"/>
    </personinfo>
    <personinfo id="152" depart="3800.00" type="DEFAULT_PEDTYPE" speedFactor="0.95" duration="503.00" waitingTime="261.00" timeLoss="66.55" traveltime="242.00">
        <ride waitingTime="261.00" vehicle="t_1" depart="4061.00" arrival="4303.00" arrivalPos="78.65" duration="242.00" routeLength="539.94" timeLoss="66.55"/>
    </personinfo>
    <personinfo id="114" depart="2850.00" type="DEFAULT_PEDTYPE" speedFactor="1.04" duration="1532.00" waitingTime="399.00" timeLoss="302.59" traveltime="1133.00">
        <ride waitingTime="399.00" vehicle="t_1" depart="3249.00" arrival="4382.00" arrivalPos="4.96" duration="1133.00" routeLength="2969.17" timeLoss="302.59"/>
    </personinfo>
    <personinfo id="104" depart="2600.00" type="DEFAULT_PEDTYPE" speedFactor="0.83" duration="1793.00" waitingTime="331.00" timeLoss="469.64" traveltime="1462.00">
        <ride waitingTime="331.00" vehicle="t_0" depart="2931.00" arrival="4393.00" arrivalPos="83.20" duration="1462.00" routeLength="4475.21" timeLoss="469.64"/>
    </personinfo>
    <personinfo id="120" depart="3000.00" type="DEFAULT_PEDTYPE" speedFactor="0.93" duration="1394.00" waitingTime="366.00" timeLoss="298.22" traveltime="1028.00">
        <ride waitingTime="366.00" vehicle="t_0" depart="3366.00" arrival="4394.00" arrivalPos="83.20" duration="1028.00" routeLength="3026.65" timeLoss="298.22"/>
    </personinfo>
    <personinfo id="154" depart="3850.00" type="DEFAULT_PEDTYPE" speedFactor="1.04" duration="640.00" waitingTime="533.00" timeLoss="23.48" traveltime="107.00">
        <ride waitingTime="533.00" vehicle="t_1" depart="4383.00" arrival="4490.00" arrivalPos="0.20" duration="107.00" routeLength="207.13" timeLoss="23.48"/>
    </personinfo>
    <personinfo id="153" depart="3825.00" type="DEFAULT_PEDTYPE" speedFactor="1.01" duration="686.00" waitingTime="378.00" timeLoss="101.38" traveltime="308.00">
        <ride waitingTime="378.00" vehicle="t_0" depart="4203.00" arrival="4511.00" arrivalPos="78.65" duration="308.00" routeLength="910.03" timeLoss="101.38"/>
    </personinfo>
    <personinfo id="164" depart="4100.00" type="DEFAULT_PEDTYPE" speedFactor="1.13" duration="412.00" waitingTime="182.00" timeLoss="41.98" traveltime="230.00">
        <ride waitingTime="182.00" vehicle="t_0" depart="4282.00" arrival="4512.00" arrivalPos="78.65" duration="230.00" routeLength="722.38" timeLoss="41.98"/>
    </personinfo>
    <personinfo id="168" depart="4200.00" type="DEFAULT_PEDTYPE" speedFactor="1.04" duration="344.00" waitingTime="319.00" timeLoss="6.00" traveltime="25.00">
        <ride waitingTime="319.00" vehicle="t_0" depart="4519.00" arrival="4544.00" arrivalPos="0.20" duration="25.00" routeLength="199.95" timeLoss="6.00"/>
    </personinfo>
    <personinfo id="56" depart="1400.00" type="DEFAULT_PEDTYPE" speedFactor="1.03" duration="3311.00" waitingTime="409.00" timeLoss="847.65" traveltime="2902.00">
        <ride waitingTime="409.00" vehicle="t_1" depart="1809.00" arrival="4711.00" arrivalPos="79.20" duration="2902.00" routeLength="8119.79" timeLoss="847.65"/>
    </personinfo>
    <personinfo id="176" depart="4400.00" type="DEFAULT_PEDTYPE" speedFactor="1.02" duration="320.00" waitingTime="204.00" timeLoss="27.24" traveltime="116.00">
        <ride waitingTime="204.00" vehicle="t_0" depart="4604.00" arrival="4720.00" arrivalPos="79.20" duration="116.00" routeLength="306.09" timeLoss="27.24"/>
    </personinfo>
    <personinfo id="181" depart="4525.00" type="DEFAULT_PEDTYPE" speedFactor="0.92" duration="306.00" waitingTime="211.00" timeLoss="6.86" traveltime="95.00">
        <ride waitingTime="211.00" vehicle="t_1" depart="4736.00" arrival="4831.00" arrivalPos="83.20" duration="95.00" routeLength="264.47" timeLoss="6.86"/>
    </personinfo>
    <personinfo id="178" depart="4450.00" type="DEFAULT_PEDTYPE" speedFactor="0.96" duration="413.00" waitingTime="298.00" timeLoss="9.88" traveltime="115.00">
        <ride waitingTime="298.00" vehicle="t_0" depart="4748.00" arrival="4863.00" arrivalPos="83.20" duration="115.00" routeLength="446.02" timeLoss="9.88"/>
    </personinfo>
    <personinfo id="179" depart="4475.00" type="DEFAULT_PEDTYPE" speedFactor="0.75" duration="472.00" waitingTime="101.00" timeLoss="86.50" traveltime="371.00">
        <ride waitingTime="101.00" vehicle="t_1" depart="4576.00" arrival="4947.00" arrivalPos="79.20" duration="371.00" routeLength="920.18" timeLoss="86.50"/>
    </personinfo>
    <personinfo id="189" depart="4725.00" type="DEFAULT_PEDTYPE" speedFactor="1.13" duration="282.00" waitingTime="195.00" timeLoss="6.05" traveltime="87.00">
        <ride waitingTime="195.00" vehicle="t_0" depart="4920.00" arrival="5007.00" arrivalPos="78.65" duration="87.00" routeLength="180.15" timeLoss="6.05"/>
    </personinfo>
    <personinfo id="172" depart="4300.00" type="DEFAULT_PEDTYPE" speedFactor="0.94" duration="811.00" waitingTime="261.00" timeLoss="137.16" traveltime="550.00">
        <ride waitingTime="261.00" vehicle="t_1" depart="4561.00" arrival="5111.00" arrivalPos="78.65" duration="550.00" routeLength="1573.48" timeLoss="137.16"/>
    </personinfo>
    <personinfo id="198" depart="4950.00" type="DEFAULT_PEDTYPE" speedFactor="1.02" duration="220.00" waitingTime="126.00" timeLoss="7.12" traveltime="94.00">
        <ride waitingTime="126.00" vehicle="t_0" depart="5076.00" arrival="5170.00" arrivalPos="79.20" duration="94.00" routeLength="271.42" timeLoss="7.12"/>
    </personinfo>
    <personinfo id="183" depart="4575.00" type="DEFAULT_PEDTYPE" speedFactor="1.02" duration="686.00" waitingTime="437.00" timeLoss="61.12" traveltime="249.00">
        <ride waitingTime="437.00" vehicle="t_1" depart="5012.00" arrival="5261.00" arrivalPos="79.20" duration="249.00" routeLength="648.62" timeLoss="61.12"/>
    </personinfo>
    <personinfo id="190" depart="4750.00" type="DEFAULT_PEDTYPE" speedFactor="0.95" duration="548.00" waitingTime="286.00" timeLoss="69.00" traveltime="262.00">
        <ride waitingTime="286.00" vehicle="t_0" depart="5036.00" arrival="5298.00" arrivalPos="0.20" duration="262.00" routeLength="738.43" timeLoss="69.00"/>
    </personinfo>
    <personinfo id="197" depart="4925.00" type="DEFAULT_PEDTYPE" speedFactor="1.16" duration="478.00" waitingTime="195.00" timeLoss="107.57" traveltime="283.00">
        <ride waitingTime="195.00" vehicle="t_1" depart="5120.00" arrival="5403.00" arrivalPos="78.65" duration="283.00" routeLength="542.22" timeLoss="107.57"/>
    </personinfo>
    <personinfo id="180" depart="4500.00" type="DEFAULT_PEDTYPE" speedFactor="1.10" duration="976.00" waitingTime="281.00" timeLoss="201.73" traveltime="695.00">
        <ride waitingTime="281.00" vehicle="t_0" depart="4781.00" arrival="5476.00" arrivalPos="83.20" duration="695.00" routeLength="1901.56" timeLoss="201.73"/>
    </personinfo>
</tripinfos>
