<?xml version="1.0" encoding="UTF-8"?>

<!-- generated on 2026-03-22T17:12:22.320936+08:00 by Eclipse SUMO sumo 1.26.0
<sumoConfiguration xmlns:xsi="http://www.w3.org/2001/XMLSchema-instance" xsi:noNamespaceSchemaLocation="http://sumo.dlr.de/xsd/sumoConfiguration.xsd">

    <input>
        <net-file value="..\SmallTestingMap\map.net.xml"/>
        <route-files value="..\SmallTestingMap\map.rou.xml,..\SmallTestingMap\persontrips_scale.rou.xml"/>
    </input>

    <output>
        <tripinfo-output value="..\SmallTestingMap\tripinfos.xml"/>
        <stop-output value="..\SmallTestingMap\stopinfos.xml"/>
        <statistic-output value="..\SmallTestingMap\stats.xml"/>
    </output>

    <time>
        <step-length value="1.0"/>
    </time>

    <report>
        <verbose value="true"/>
        <duration-log.statistics value="true"/>
        <no-step-log value="true"/>
    </report>

    <taxi_device>
        <device.taxi.dispatch-algorithm value="traci"/>
    </taxi_device>

    <traci_server>
        <remote-port value="52549"/>
    </traci_server>

</sumoConfiguration>
-->

<tripinfos xmlns:xsi="http://www.w3.org/2001/XMLSchema-instance" xsi:noNamespaceSchemaLocation="http://sumo.dlr.de/xsd/tripinfo_file.xsd">
    <personinfo id="0" depart="0.00" type="DEFAULT_PEDTYPE" speedFactor="1.01" duration="158.00" waitingTime="65.00" timeLoss="10.63" traveltime="93.00">
        <ride waitingTime="65.00" vehicle="t_0" depart="65.00" arrival="158.00" arrivalPos="0.20" duration="93.00" routeLength="213.47" timeLoss="10.63"/>
    </personinfo>
    <personinfo id="1" depart="24.00" type="DEFAULT_PEDTYPE" speedFactor="1.08" duration="276.00" waitingTime="52.00" timeLoss="79.73" traveltime="224.00">
        <ride waitingTime="52.00" vehicle="t_1" depart="76.00" arrival="300.00" arrivalPos="83.20" duration="224.00" routeLength="551.75" timeLoss="79.73"/>
    </personinfo>
    <personinfo id="2" depart="234.00" type="DEFAULT_PEDTYPE" speedFactor="1.12" duration="293.00" waitingTime="161.00" timeLoss="45.28" traveltime="132.00">
        <ride waitingTime="161.00" vehicle="t_1" depart="395.00" arrival="527.00" arrivalPos="0.20" duration="132.00" routeLength="278.79" timeLoss="45.28"/>
    </personinfo>
    <personinfo id="3" depart="431.00" type="DEFAULT_PEDTYPE" speedFactor="0.90" duration="139.00" waitingTime="18.00" timeLoss="42.36" traveltime="121.00">
        <ride waitingTime="18.00" vehicle="t_0" depart="449.00" arrival="570.00" arrivalPos="0.20" duration="121.00" routeLength="177.99" timeLoss="42.36"/>
    </personinfo>
    <personinfo id="4" depart="454.00" type="DEFAULT_PEDTYPE" speedFactor="0.88" duration="191.00" waitingTime="106.00" timeLoss="5.62" traveltime="85.00">
        <ride waitingTime="106.00" vehicle="t_1" depart="560.00" arrival="645.00" arrivalPos="0.20" duration="85.00" routeLength="199.96" timeLoss="5.62"/>
    </personinfo>
    <personinfo id="5" depart="642.00" type="DEFAULT_PEDTYPE" speedFactor="1.06" duration="186.00" waitingTime="85.00" timeLoss="9.31" traveltime="101.00">
        <ride waitingTime="85.00" vehicle="t_0" depart="727.00" arrival="828.00" arrivalPos="0.20" duration="101.00" routeLength="318.69" timeLoss="9.31"/>
    </personinfo>
    <personinfo id="6" depart="839.00" type="DEFAULT_PEDTYPE" speedFactor="1.01" duration="117.00" waitingTime="18.00" timeLoss="8.72" traveltime="99.00">
        <ride waitingTime="18.00" vehicle="t_0" depart="857.00" arrival="956.00" arrivalPos="83.20" duration="99.00" routeLength="338.58" timeLoss="8.72"/>
    </personinfo>
    <personinfo id="7" depart="919.00" type="DEFAULT_PEDTYPE" speedFactor="1.13" duration="141.00" waitingTime="13.00" timeLoss="14.09" traveltime="128.00">
        <ride waitingTime="13.00" vehicle="t_1" depart="932.00" arrival="1060.00" arrivalPos="78.65" duration="128.00" routeLength="275.62" timeLoss="14.09"/>
    </personinfo>
    <personinfo id="8" depart="945.00" type="DEFAULT_PEDTYPE" speedFactor="0.73" duration="124.00" waitingTime="19.00" timeLoss="5.80" traveltime="105.00">
        <ride waitingTime="19.00" vehicle="t_1" depart="964.00" arrival="1069.00" arrivalPos="5.00" duration="105.00" routeLength="97.48" timeLoss="5.80"/>
    </personinfo>
    <personinfo id="11" depart="1068.00" type="DEFAULT_PEDTYPE" speedFactor="1.00" duration="175.00" waitingTime="73.00" timeLoss="22.73" traveltime="102.00">
        <ride waitingTime="73.00" vehicle="t_0" depart="1141.00" arrival="1243.00" arrivalPos="78.65" duration="102.00" routeLength="180.11" timeLoss="22.73"/>
    </personinfo>
    <personinfo id="10" depart="991.00" type="DEFAULT_PEDTYPE" speedFactor="0.89" duration="271.00" waitingTime="79.00" timeLoss="26.88" traveltime="192.00">
        <ride waitingTime="79.00" vehicle="t_1" depart="1070.00" arrival="1262.00" arrivalPos="79.20" duration="192.00" routeLength="450.76" timeLoss="26.88"/>
    </personinfo>
    <personinfo id="12" depart="1266.00" type="DEFAULT_PEDTYPE" speedFactor="0.98" duration="141.00" waitingTime="56.00" timeLoss="5.56" traveltime="85.00">
        <ride waitingTime="56.00" vehicle="t_0" depart="1322.00" arrival="1407.00" arrivalPos="0.20" duration="85.00" routeLength="178.62" timeLoss="5.56"/>
    </personinfo>
    <personinfo id="9" depart="968.00" type="DEFAULT_PEDTYPE" speedFactor="1.14" duration="468.00" waitingTime="354.00" timeLoss="20.43" traveltime="114.00">
        <ride waitingTime="354.00" vehicle="t_1" depart="1322.00" arrival="1436.00" arrivalPos="83.20" duration="114.00" routeLength="352.23" timeLoss="20.43"/>
    </personinfo>
    <personinfo id="13" depart="1291.00" type="DEFAULT_PEDTYPE" speedFactor="0.97" duration="279.00" waitingTime="166.00" timeLoss="6.62" traveltime="113.00">
        <ride waitingTime="166.00" vehicle="t_0" depart="1457.00" arrival="1570.00" arrivalPos="78.65" duration="113.00" routeLength="391.70" timeLoss="6.62"/>
    </personinfo>
    <personinfo id="15" depart="1533.00" type="DEFAULT_PEDTYPE" speedFactor="1.00" duration="148.00" waitingTime="36.00" timeLoss="9.49" traveltime="112.00">
        <ride waitingTime="36.00" vehicle="t_1" depart="1569.00" arrival="1681.00" arrivalPos="78.65" duration="112.00" routeLength="372.96" timeLoss="9.49"/>
    </personinfo>
    <personinfo id="14" depart="1507.00" type="DEFAULT_PEDTYPE" speedFactor="0.86" duration="223.00" waitingTime="111.00" timeLoss="5.34" traveltime="112.00">
        <ride waitingTime="111.00" vehicle="t_0" depart="1618.00" arrival="1730.00" arrivalPos="78.65" duration="112.00" routeLength="276.20" timeLoss="5.34"/>
    </personinfo>
    <personinfo id="16" depart="1559.00" type="DEFAULT_PEDTYPE" speedFactor="1.09" duration="272.00" waitingTime="42.00" timeLoss="70.94" traveltime="230.00">
        <ride waitingTime="42.00" vehicle="t_1" depart="1601.00" arrival="1831.00" arrivalPos="79.20" duration="230.00" routeLength="316.41" timeLoss="70.94"/>
    </personinfo>
    <personinfo id="18" depart="1663.00" type="DEFAULT_PEDTYPE" speedFactor="0.95" duration="220.00" waitingTime="99.00" timeLoss="9.23" traveltime="121.00">
        <ride waitingTime="99.00" vehicle="t_0" depart="1762.00" arrival="1883.00" arrivalPos="83.20" duration="121.00" routeLength="577.43" timeLoss="9.23"/>
    </personinfo>
    <personinfo id="17" depart="1586.00" type="DEFAULT_PEDTYPE" speedFactor="1.01" duration="434.00" waitingTime="268.00" timeLoss="29.76" traveltime="166.00">
        <ride waitingTime="268.00" vehicle="t_1" depart="1854.00" arrival="2020.00" arrivalPos="83.20" duration="166.00" routeLength="361.45" timeLoss="29.76"/>
    </personinfo>
    <personinfo id="19" depart="1736.00" type="DEFAULT_PEDTYPE" speedFactor="0.93" duration="322.00" waitingTime="26.00" timeLoss="86.86" traveltime="296.00">
        <ride waitingTime="26.00" vehicle="t_0" depart="1762.00" arrival="2058.00" arrivalPos="83.20" duration="296.00" routeLength="958.12" timeLoss="86.86"/>
    </personinfo>
    <personinfo id="20" depart="1953.00" type="DEFAULT_PEDTYPE" speedFactor="1.05" duration="204.00" waitingTime="95.00" timeLoss="21.53" traveltime="109.00">
        <ride waitingTime="95.00" vehicle="t_1" depart="2048.00" arrival="2157.00" arrivalPos="83.20" duration="109.00" routeLength="266.11" timeLoss="21.53"/>
    </personinfo>
    <personinfo id="21" depart="2159.00" type="DEFAULT_PEDTYPE" speedFactor="0.81" duration="135.00" waitingTime="30.00" timeLoss="15.07" traveltime="105.00">
        <ride waitingTime="30.00" vehicle="t_1" depart="2189.00" arrival="2294.00" arrivalPos="0.20" duration="105.00" routeLength="299.97" timeLoss="15.07"/>
    </personinfo>
    <personinfo id="22" depart="2182.00" type="DEFAULT_PEDTYPE" speedFactor="0.96" duration="331.00" waitingTime="143.00" timeLoss="86.78" traveltime="188.00">
        <ride waitingTime="143.00" vehicle="t_1" depart="2325.00" arrival="2513.00" arrivalPos="83.20" duration="188.00" routeLength="476.08" timeLoss="86.78"/>
    </personinfo>
    <personinfo id="24" depart="2470.00" type="DEFAULT_PEDTYPE" speedFactor="1.00" duration="166.00" waitingTime="67.00" timeLoss="7.42" traveltime="99.00">
        <ride waitingTime="67.00" vehicle="t_0" depart="2537.00" arrival="2636.00" arrivalPos="79.20" duration="99.00" routeLength="352.28" timeLoss="7.42"/>
    </personinfo>
    <personinfo id="23" depart="2390.00" type="DEFAULT_PEDTYPE" speedFactor="1.08" duration="305.00" waitingTime="180.00" timeLoss="10.46" traveltime="125.00">
        <ride waitingTime="180.00" vehicle="t_1" depart="2570.00" arrival="2695.00" arrivalPos="83.20" duration="125.00" routeLength="577.48" timeLoss="10.46"/>
    </personinfo>
    <personinfo id="25" depart="2496.00" type="DEFAULT_PEDTYPE" speedFactor="1.00" duration="324.00" waitingTime="209.00" timeLoss="29.48" traveltime="115.00">
        <ride waitingTime="209.00" vehicle="t_0" depart="2705.00" arrival="2820.00" arrivalPos="0.20" duration="115.00" routeLength="287.45" timeLoss="29.48"/>
    </personinfo>
    <personinfo id="26" depart="2568.00" type="DEFAULT_PEDTYPE" speedFactor="1.10" duration="385.00" waitingTime="94.00" timeLoss="107.90" traveltime="291.00">
        <ride waitingTime="94.00" vehicle="t_0" depart="2662.00" arrival="2953.00" arrivalPos="79.20" duration="291.00" routeLength="626.82" timeLoss="107.90"/>
    </personinfo>
    <personinfo id="27" depart="2760.00" type="DEFAULT_PEDTYPE" speedFactor="1.15" duration="252.00" waitingTime="83.00" timeLoss="72.45" traveltime="169.00">
        <ride waitingTime="83.00" vehicle="t_1" depart="2843.00" arrival="3012.00" arrivalPos="78.65" duration="169.00" routeLength="386.49" timeLoss="72.45"/>
    </personinfo>
    <personinfo id="28" depart="2841.00" type="DEFAULT_PEDTYPE" speedFactor="0.95" duration="366.00" waitingTime="224.00" timeLoss="40.68" traveltime="142.00">
        <ride waitingTime="224.00" vehicle="t_1" depart="3065.00" arrival="3207.00" arrivalPos="79.20" duration="142.00" routeLength="434.34" timeLoss="40.68"/>
    </personinfo>
    <personinfo id="31" depart="3148.00" type="DEFAULT_PEDTYPE" speedFactor="0.94" duration="162.00" waitingTime="19.00" timeLoss="6.11" traveltime="143.00">
        <ride waitingTime="19.00" vehicle="t_0" depart="3167.00" arrival="3310.00" arrivalPos="78.65" duration="143.00" routeLength="264.83" timeLoss="6.11"/>
    </personinfo>
    <personinfo id="29" depart="2865.00" type="DEFAULT_PEDTYPE" speedFactor="0.99" duration="475.00" waitingTime="200.00" timeLoss="76.75" traveltime="275.00">
        <ride waitingTime="200.00" vehicle="t_1" depart="3065.00" arrival="3340.00" arrivalPos="83.20" duration="275.00" routeLength="622.21" timeLoss="76.75"/>
    </personinfo>
    <personinfo id="30" depart="3067.00" type="DEFAULT_PEDTYPE" speedFactor="0.93" duration="404.00" waitingTime="293.00" timeLoss="9.53" traveltime="111.00">
        <ride waitingTime="293.00" vehicle="t_1" depart="3360.00" arrival="3471.00" arrivalPos="78.65" duration="111.00" routeLength="449.68" timeLoss="9.53"/>
    </personinfo>
    <personinfo id="32" depart="3175.00" type="DEFAULT_PEDTYPE" speedFactor="1.02" duration="367.00" waitingTime="173.00" timeLoss="98.06" traveltime="194.00">
        <ride waitingTime="173.00" vehicle="t_0" depart="3348.00" arrival="3542.00" arrivalPos="78.65" duration="194.00" routeLength="368.80" timeLoss="98.06"/>
    </personinfo>
    <personinfo id="34" depart="3270.00" type="DEFAULT_PEDTYPE" speedFactor="0.92" duration="360.00" waitingTime="212.00" timeLoss="21.04" traveltime="148.00">
        <ride waitingTime="212.00" vehicle="t_1" depart="3482.00" arrival="3630.00" arrivalPos="83.20" duration="148.00" routeLength="361.47" timeLoss="21.04"/>
    </personinfo>
    <personinfo id="36" depart="3566.00" type="DEFAULT_PEDTYPE" speedFactor="1.20" duration="213.00" waitingTime="88.00" timeLoss="25.64" traveltime="125.00">
        <ride waitingTime="88.00" vehicle="t_1" depart="3654.00" arrival="3779.00" arrivalPos="78.65" duration="125.00" routeLength="387.95" timeLoss="25.64"/>
    </personinfo>
    <personinfo id="33" depart="3244.00" type="DEFAULT_PEDTYPE" speedFactor="0.94" duration="610.00" waitingTime="418.00" timeLoss="91.85" traveltime="192.00">
        <ride waitingTime="418.00" vehicle="t_0" depart="3662.00" arrival="3854.00" arrivalPos="78.65" duration="192.00" routeLength="451.24" timeLoss="91.85"/>
    </personinfo>
    <personinfo id="35" depart="3346.00" type="DEFAULT_PEDTYPE" speedFactor="1.09" duration="684.00" waitingTime="537.00" timeLoss="28.91" traveltime="147.00">
        <ride waitingTime="537.00" vehicle="t_0" depart="3883.00" arrival="4030.00" arrivalPos="79.20" duration="147.00" routeLength="261.00" timeLoss="28.91"/>
    </personinfo>
    <personinfo id="37" depart="3780.00" type="DEFAULT_PEDTYPE" speedFactor="0.96" duration="330.00" waitingTime="124.00" timeLoss="48.19" traveltime="206.00">
        <ride waitingTime="124.00" vehicle="t_1" depart="3904.00" arrival="4110.00" arrivalPos="83.20" duration="206.00" routeLength="789.98" timeLoss="48.19"/>
    </personinfo>
    <personinfo id="38" depart="3965.00" type="DEFAULT_PEDTYPE" speedFactor="1.02" duration="297.00" waitingTime="119.00" timeLoss="89.58" traveltime="178.00">
        <ride waitingTime="119.00" vehicle="t_0" depart="4084.00" arrival="4262.00" arrivalPos="79.20" duration="178.00" routeLength="280.76" timeLoss="89.58"/>
    </personinfo>
    <personinfo id="39" depart="4044.00" type="DEFAULT_PEDTYPE" speedFactor="1.09" duration="262.00" waitingTime="137.00" timeLoss="36.02" traveltime="125.00">
        <ride waitingTime="137.00" vehicle="t_1" depart="4181.00" arrival="4306.00" arrivalPos="83.20" duration="125.00" routeLength="262.26" timeLoss="36.02"/>
    </personinfo>
    <personinfo id="40" depart="4118.00" type="DEFAULT_PEDTYPE" speedFactor="0.89" duration="302.00" waitingTime="171.00" timeLoss="6.67" traveltime="131.00">
        <ride waitingTime="171.00" vehicle="t_0" depart="4289.00" arrival="4420.00" arrivalPos="0.20" duration="131.00" routeLength="255.32" timeLoss="6.67"/>
    </personinfo>
    <personinfo id="41" depart="4333.00" type="DEFAULT_PEDTYPE" speedFactor="0.84" duration="247.00" waitingTime="154.00" timeLoss="6.56" traveltime="93.00">
        <ride waitingTime="154.00" vehicle="t_0" depart="4487.00" arrival="4580.00" arrivalPos="0.20" duration="93.00" routeLength="290.28" timeLoss="6.56"/>
    </personinfo>
    <personinfo id="43" depart="4438.00" type="DEFAULT_PEDTYPE" speedFactor="1.00" duration="180.00" waitingTime="81.00" timeLoss="17.79" traveltime="99.00">
        <ride waitingTime="81.00" vehicle="t_1" depart="4519.00" arrival="4618.00" arrivalPos="79.20" duration="99.00" routeLength="206.82" timeLoss="17.79"/>
    </personinfo>
    <personinfo id="42" depart="4358.00" type="DEFAULT_PEDTYPE" speedFactor="1.00" duration="392.00" waitingTime="113.00" timeLoss="54.35" traveltime="279.00">
        <ride waitingTime="113.00" vehicle="t_0" depart="4471.00" arrival="4750.00" arrivalPos="78.65" duration="279.00" routeLength="585.57" timeLoss="54.35"/>
    </personinfo>
    <personinfo id="44" depart="4461.00" type="DEFAULT_PEDTYPE" speedFactor="1.00" duration="408.00" waitingTime="270.00" timeLoss="32.95" traveltime="138.00">
        <ride waitingTime="270.00" vehicle="t_1" depart="4731.00" arrival="4869.00" arrivalPos="78.65" duration="138.00" routeLength="464.32" timeLoss="32.95"/>
    </personinfo>
    <personinfo id="45" depart="4680.00" type="DEFAULT_PEDTYPE" speedFactor="0.98" duration="260.00" waitingTime="89.00" timeLoss="14.27" traveltime="171.00">
        <ride waitingTime="89.00" vehicle="t_0" depart="4769.00" arrival="4940.00" arrivalPos="83.20" duration="171.00" routeLength="553.31" timeLoss="14.27"/>
    </personinfo>
    <personinfo id="46" depart="4872.00" type="DEFAULT_PEDTYPE" speedFactor="1.09" duration="218.00" waitingTime="94.00" timeLoss="8.68" traveltime="124.00">
        <ride waitingTime="94.00" vehicle="t_0" depart="4966.00" arrival="5090.00" arrivalPos="0.20" duration="124.00" routeLength="311.96" timeLoss="8.68"/>
    </personinfo>
    <personinfo id="47" depart="4953.00" type="DEFAULT_PEDTYPE" speedFactor="1.04" duration="262.00" waitingTime="46.00" timeLoss="28.12" traveltime="216.00">
        <ride waitingTime="46.00" vehicle="t_0" depart="4999.00" arrival="5215.00" arrivalPos="83.20" duration="216.00" routeLength="418.84" timeLoss="28.12"/>
    </personinfo>
    <personinfo id="49" depart="5047.00" type="DEFAULT_PEDTYPE" speedFactor="1.00" duration="169.00" waitingTime="45.00" timeLoss="28.43" traveltime="124.00">
        <ride waitingTime="45.00" vehicle="t_1" depart="5092.00" arrival="5216.00" arrivalPos="78.65" duration="124.00" routeLength="376.39" timeLoss="28.43"/>
    </personinfo>
    <personinfo id="53" depart="5149.00" type="DEFAULT_PEDTYPE" speedFactor="1.13" duration="158.00" waitingTime="78.00" timeLoss="2.08" traveltime="80.00">
        <ride waitingTime="78.00" vehicle="t_1" depart="5227.00" arrival="5307.00" arrivalPos="78.65" duration="80.00" routeLength="162.27" timeLoss="2.08"/>
    </personinfo>
    <personinfo id="48" depart="5024.00" type="DEFAULT_PEDTYPE" speedFactor="1.04" duration="409.00" waitingTime="304.00" timeLoss="11.95" traveltime="105.00">
        <ride waitingTime="304.00" vehicle="t_0" depart="5328.00" arrival="5433.00" arrivalPos="79.20" duration="105.00" routeLength="340.10" timeLoss="11.95"/>
    </personinfo>
    <personinfo id="50" depart="5075.00" type="DEFAULT_PEDTYPE" speedFactor="0.99" duration="444.00" waitingTime="286.00" timeLoss="63.09" traveltime="158.00">
        <ride waitingTime="286.00" vehicle="t_1" depart="5361.00" arrival="5519.00" arrivalPos="83.20" duration="158.00" routeLength="363.56" timeLoss="63.09"/>
    </personinfo>
    <personinfo id="52" depart="5122.00" type="DEFAULT_PEDTYPE" speedFactor="0.96" duration="488.00" waitingTime="375.00" timeLoss="7.06" traveltime="113.00">
        <ride waitingTime="375.00" vehicle="t_0" depart="5497.00" arrival="5610.00" arrivalPos="78.65" duration="113.00" routeLength="362.17" timeLoss="7.06"/>
    </personinfo>
    <personinfo id="51" depart="5098.00" type="DEFAULT_PEDTYPE" speedFactor="0.97" duration="646.00" waitingTime="535.00" timeLoss="23.23" traveltime="111.00">
        <ride waitingTime="535.00" vehicle="t_1" depart="5633.00" arrival="5744.00" arrivalPos="79.20" duration="111.00" routeLength="279.48" timeLoss="23.23"/>
    </personinfo>
    <personinfo id="54" depart="5337.00" type="DEFAULT_PEDTYPE" speedFactor="0.87" duration="413.00" waitingTime="317.00" timeLoss="4.22" traveltime="96.00">
        <ride waitingTime="317.00" vehicle="t_0" depart="5654.00" arrival="5750.00" arrivalPos="83.20" duration="96.00" routeLength="164.00" timeLoss="4.22"/>
    </personinfo>
    <personinfo id="55" depart="5543.00" type="DEFAULT_PEDTYPE" speedFactor="1.01" duration="329.00" waitingTime="232.00" timeLoss="6.30" traveltime="97.00">
        <ride waitingTime="232.00" vehicle="t_0" depart="5775.00" arrival="5872.00" arrivalPos="78.65" duration="97.00" routeLength="299.47" timeLoss="6.30"/>
    </personinfo>
    <personinfo id="56" depart="5612.00" type="DEFAULT_PEDTYPE" speedFactor="1.07" duration="344.00" waitingTime="183.00" timeLoss="45.04" traveltime="161.00">
        <ride waitingTime="183.00" vehicle="t_1" depart="5795.00" arrival="5956.00" arrivalPos="83.20" duration="161.00" routeLength="688.77" timeLoss="45.04"/>
    </personinfo>
    <personinfo id="57" depart="5680.00" type="DEFAULT_PEDTYPE" speedFactor="1.10" duration="362.00" waitingTime="267.00" timeLoss="7.67" traveltime="95.00">
        <ride waitingTime="267.00" vehicle="t_0" depart="5947.00" arrival="6042.00" arrivalPos="0.20" duration="95.00" routeLength="282.60" timeLoss="7.67"/>
    </personinfo>
    <personinfo id="58" depart="5869.00" type="DEFAULT_PEDTYPE" speedFactor="1.07" duration="262.00" waitingTime="120.00" timeLoss="35.81" traveltime="142.00">
        <ride waitingTime="120.00" vehicle="t_1" depart="5989.00" arrival="6131.00" arrivalPos="83.20" duration="142.00" routeLength="555.72" timeLoss="35.81"/>
    </personinfo>
    <personinfo id="60" depart="6120.00" type="DEFAULT_PEDTYPE" speedFactor="0.88" duration="120.00" waitingTime="13.00" timeLoss="29.37" traveltime="107.00">
        <ride waitingTime="13.00" vehicle="t_0" depart="6133.00" arrival="6240.00" arrivalPos="0.20" duration="107.00" routeLength="176.25" timeLoss="29.37"/>
    </personinfo>
    <personinfo id="59" depart="6051.00" type="DEFAULT_PEDTYPE" speedFactor="0.99" duration="244.00" waitingTime="109.00" timeLoss="35.15" traveltime="135.00">
        <ride waitingTime="109.00" vehicle="t_1" depart="6160.00" arrival="6295.00" arrivalPos="83.20" duration="135.00" routeLength="461.51" timeLoss="35.15"/>
    </personinfo>
    <personinfo id="61" depart="6319.00" type="DEFAULT_PEDTYPE" speedFactor="0.90" duration="199.00" waitingTime="62.00" timeLoss="36.76" traveltime="137.00">
        <ride waitingTime="62.00" vehicle="t_0" depart="6381.00" arrival="6518.00" arrivalPos="83.20" duration="137.00" routeLength="457.21" timeLoss="36.76"/>
    </personinfo>
    <personinfo id="62" depart="6536.00" type="DEFAULT_PEDTYPE" speedFactor="1.22" duration="174.00" waitingTime="26.00" timeLoss="53.47" traveltime="148.00">
        <ride waitingTime="26.00" vehicle="t_1" depart="6562.00" arrival="6710.00" arrivalPos="83.20" duration="148.00" routeLength="350.27" timeLoss="53.47"/>
    </personinfo>
    <personinfo id="64" depart="6678.00" type="DEFAULT_PEDTYPE" speedFactor="1.01" duration="193.00" waitingTime="45.00" timeLoss="51.23" traveltime="148.00">
        <ride waitingTime="45.00" vehicle="t_0" depart="6723.00" arrival="6871.00" arrivalPos="79.20" duration="148.00" routeLength="376.18" timeLoss="51.23"/>
    </personinfo>
    <personinfo id="63" depart="6608.00" type="DEFAULT_PEDTYPE" speedFactor="0.96" duration="294.00" waitingTime="134.00" timeLoss="56.83" traveltime="160.00">
        <ride waitingTime="134.00" vehicle="t_1" depart="6742.00" arrival="6902.00" arrivalPos="78.65" duration="160.00" routeLength="452.15" timeLoss="56.83"/>
    </personinfo>
    <personinfo id="65" depart="6751.00" type="DEFAULT_PEDTYPE" speedFactor="0.98" duration="359.00" waitingTime="196.00" timeLoss="22.23" traveltime="163.00">
        <ride waitingTime="196.00" vehicle="t_0" depart="6947.00" arrival="7110.00" arrivalPos="79.20" duration="163.00" routeLength="305.37" timeLoss="22.23"/>
    </personinfo>
    <personinfo id="66" depart="6933.00" type="DEFAULT_PEDTYPE" speedFactor="1.03" duration="257.00" waitingTime="110.00" timeLoss="9.13" traveltime="147.00">
        <ride waitingTime="110.00" vehicle="t_1" depart="7043.00" arrival="7190.00" arrivalPos="78.65" duration="147.00" routeLength="342.34" timeLoss="9.13"/>
    </personinfo>
    <personinfo id="67" depart="6956.00" type="DEFAULT_PEDTYPE" speedFactor="0.92" duration="300.00" waitingTime="206.00" timeLoss="8.01" traveltime="94.00">
        <ride waitingTime="206.00" vehicle="t_0" depart="7162.00" arrival="7256.00" arrivalPos="79.20" duration="94.00" routeLength="246.39" timeLoss="8.01"/>
    </personinfo>
    <personinfo id="69" depart="7049.00" type="DEFAULT_PEDTYPE" speedFactor="0.86" duration="377.00" waitingTime="275.00" timeLoss="10.84" traveltime="102.00">
        <ride waitingTime="275.00" vehicle="t_0" depart="7324.00" arrival="7426.00" arrivalPos="78.65" duration="102.00" routeLength="299.46" timeLoss="10.84"/>
    </personinfo>
    <personinfo id="68" depart="6979.00" type="DEFAULT_PEDTYPE" speedFactor="1.11" duration="531.00" waitingTime="329.00" timeLoss="8.91" traveltime="202.00">
        <ride waitingTime="329.00" vehicle="t_1" depart="7308.00" arrival="7510.00" arrivalPos="79.20" duration="202.00" routeLength="376.27" timeLoss="8.91"/>
    </personinfo>
    <personinfo id="71" depart="7304.00" type="DEFAULT_PEDTYPE" speedFactor="1.04" duration="225.00" waitingTime="140.00" timeLoss="4.94" traveltime="85.00">
        <ride waitingTime="140.00" vehicle="t_0" depart="7444.00" arrival="7529.00" arrivalPos="83.20" duration="85.00" routeLength="199.38" timeLoss="4.94"/>
    </personinfo>
    <personinfo id="70" depart="7120.00" type="DEFAULT_PEDTYPE" speedFactor="1.21" duration="604.00" waitingTime="402.00" timeLoss="83.41" traveltime="202.00">
        <ride waitingTime="402.00" vehicle="t_1" depart="7522.00" arrival="7724.00" arrivalPos="83.20" duration="202.00" routeLength="631.20" timeLoss="83.41"/>
    </personinfo>
    <personinfo id="72" depart="7332.00" type="DEFAULT_PEDTYPE" speedFactor="0.98" duration="458.00" waitingTime="281.00" timeLoss="30.11" traveltime="177.00">
        <ride waitingTime="281.00" vehicle="t_0" depart="7613.00" arrival="7790.00" arrivalPos="83.20" duration="177.00" routeLength="445.31" timeLoss="30.11"/>
    </personinfo>
    <personinfo id="75" depart="7449.00" type="DEFAULT_PEDTYPE" speedFactor="1.05" duration="371.00" waitingTime="125.00" timeLoss="73.22" traveltime="246.00">
        <ride waitingTime="125.00" vehicle="t_1" depart="7574.00" arrival="7820.00" arrivalPos="79.20" duration="246.00" routeLength="461.51" timeLoss="73.22"/>
    </personinfo>
    <personinfo id="74" depart="7382.00" type="DEFAULT_PEDTYPE" speedFactor="0.92" duration="612.00" waitingTime="473.00" timeLoss="50.07" traveltime="139.00">
        <ride waitingTime="473.00" vehicle="t_1" depart="7855.00" arrival="7994.00" arrivalPos="78.65" duration="139.00" routeLength="256.08" timeLoss="50.07"/>
    </personinfo>
    <personinfo id="73" depart="7355.00" type="DEFAULT_PEDTYPE" speedFactor="0.94" duration="685.00" waitingTime="304.00" timeLoss="72.72" traveltime="381.00">
        <ride waitingTime="304.00" vehicle="t_0" depart="7659.00" arrival="8040.00" arrivalPos="83.20" duration="381.00" routeLength="817.95" timeLoss="72.72"/>
    </personinfo>
    <personinfo id="76" depart="7521.00" type="DEFAULT_PEDTYPE" speedFactor="0.97" duration="620.00" waitingTime="483.00" timeLoss="49.86" traveltime="137.00">
        <ride waitingTime="483.00" vehicle="t_1" depart="8004.00" arrival="8141.00" arrivalPos="83.20" duration="137.00" routeLength="253.82" timeLoss="49.86"/>
    </personinfo>
    <personinfo id="77" depart="7727.00" type="DEFAULT_PEDTYPE" speedFactor="0.90" duration="477.00" waitingTime="163.00" timeLoss="64.96" traveltime="314.00">
        <ride waitingTime="163.00" vehicle="t_0" depart="7890.00" arrival="8204.00" arrivalPos="83.20" duration="314.00" routeLength="648.08" timeLoss="64.96"/>
    </personinfo>
    <personinfo id="78" depart="7751.00" type="DEFAULT_PEDTYPE" speedFactor="0.98" duration="533.00" waitingTime="104.00" timeLoss="155.77" traveltime="429.00">
        <ride waitingTime="104.00" vehicle="t_1" depart="7855.00" arrival="8284.00" arrivalPos="83.20" duration="429.00" routeLength="830.01" timeLoss="155.77"/>
    </personinfo>
    <personinfo id="79" depart="7953.00" type="DEFAULT_PEDTYPE" speedFactor="0.96" duration="355.00" waitingTime="278.00" timeLoss="3.77" traveltime="77.00">
        <ride waitingTime="278.00" vehicle="t_0" depart="8231.00" arrival="8308.00" arrivalPos="78.65" duration="77.00" routeLength="94.95" timeLoss="3.77"/>
    </personinfo>
    <personinfo id="82" depart="8185.00" type="DEFAULT_PEDTYPE" speedFactor="1.01" duration="269.00" waitingTime="121.00" timeLoss="57.09" traveltime="148.00">
        <ride waitingTime="121.00" vehicle="t_1" depart="8306.00" arrival="8454.00" arrivalPos="0.20" duration="148.00" routeLength="278.54" timeLoss="57.09"/>
    </personinfo>
    <personinfo id="80" depart="7976.00" type="DEFAULT_PEDTYPE" speedFactor="0.88" duration="504.00" waitingTime="237.00" timeLoss="60.20" traveltime="267.00">
        <ride waitingTime="237.00" vehicle="t_0" depart="8213.00" arrival="8480.00" arrivalPos="79.20" duration="267.00" routeLength="566.49" timeLoss="60.20"/>
    </personinfo>
    <personinfo id="83" depart="8210.00" type="DEFAULT_PEDTYPE" speedFactor="1.02" duration="383.00" waitingTime="176.00" timeLoss="48.72" traveltime="207.00">
        <ride waitingTime="176.00" vehicle="t_1" depart="8386.00" arrival="8593.00" arrivalPos="79.20" duration="207.00" routeLength="271.38" timeLoss="48.72"/>
    </personinfo>
    <personinfo id="84" depart="8413.00" type="DEFAULT_PEDTYPE" speedFactor="1.03" duration="239.00" waitingTime="91.00" timeLoss="42.32" traveltime="148.00">
        <ride waitingTime="91.00" vehicle="t_0" depart="8504.00" arrival="8652.00" arrivalPos="78.65" duration="148.00" routeLength="539.35" timeLoss="42.32"/>
    </personinfo>
    <personinfo id="81" depart="8162.00" type="DEFAULT_PEDTYPE" speedFactor="1.08" duration="598.00" waitingTime="349.00" timeLoss="79.87" traveltime="249.00">
        <ride waitingTime="349.00" vehicle="t_1" depart="8511.00" arrival="8760.00" arrivalPos="78.65" duration="249.00" routeLength="447.19" timeLoss="79.87"/>
    </personinfo>