<?xml version="1.0" encoding="UTF-8"?>

<!-- generated on 2026-03-18T14:26:07.352703+08:00 by Eclipse SUMO sumo 1.26.0
<sumoConfiguration xmlns:xsi="http://www.w3.org/2001/XMLSchema-instance" xsi:noNamespaceSchemaLocation="http://sumo.dlr.de/xsd/sumoConfiguration.xsd">

    <input>
        <net-file value="..\SmallTestingMap\map.net.xml"/>
        <route-files value="..\SmallTestingMap\map.rou.xml,..\SmallTestingMap\requests.rou.xml"/>
    </input>

    <output>
        <tripinfo-output value="..\SmallTestingMap\tripinfos.xml"/>
        <stop-output value="..\SmallTestingMap\stopinfos.xml"/>
        <statistic-output value="..\SmallTestingMap\stats.xml"/>
    </output>

    <time>
        <step-length value="1.0"/>
    </time>

    <report>
        <verbose value="true"/>
        <duration-log.statistics value="true"/>
        <no-step-log value="true"/>
    </report>

    <taxi_device>
        <device.taxi.dispatch-algorithm value="traci"/>
    </taxi_device>

    <traci_server>
        <remote-port value="64890"/>
    </traci_server>

</sumoConfiguration>
-->

<tripinfos xmlns:xsi="http://www.w3.org/2001/XMLSchema-instance" xsi:noNamespaceSchemaLocation="http://sumo.dlr.de/xsd/tripinfo_file.xsd">
    <personinfo id="0" depart="0.00" type="DEFAULT_PEDTYPE" speedFactor="1.01" duration="170.00" waitingTime="60.00" timeLoss="6.69" traveltime="110.00">
        <ride waitingTime="60.00" vehicle="t_1" depart="60.00" arrival="170.00" arrivalPos="0.20" duration="110.00" routeLength="213.44" timeLoss="6.69"/>
    </personinfo>
    <personinfo id="1" depart="100.00" type="DEFAULT_PEDTYPE" speedFactor="1.08" duration="270.00" waitingTime="132.00" timeLoss="12.67" traveltime="138.00">
        <ride waitingTime="132.00" vehicle="t_1" depart="232.00" arrival="370.00" arrivalPos="83.20" duration="138.00" routeLength="551.75" timeLoss="12.67"/>
    </personinfo>
    <personinfo id="2" depart="200.00" type="DEFAULT_PEDTYPE" speedFactor="0.94" duration="191.00" waitingTime="53.00" timeLoss="46.71" traveltime="138.00">
        <ride waitingTime="53.00" vehicle="t_0" depart="253.00" arrival="391.00" arrivalPos="83.20" duration="138.00" routeLength="291.67" timeLoss="46.71"/>
    </personinfo>
    <personinfo id="3" depart="300.00" type="DEFAULT_PEDTYPE" speedFactor="0.94" duration="232.00" waitingTime="120.00" timeLoss="51.44" traveltime="112.00">
        <ride waitingTime="120.00" vehicle="t_1" depart="420.00" arrival="532.00" arrivalPos="5.00" duration="112.00" routeLength="585.74" timeLoss="51.44"/>
    </personinfo>
    <personinfo id="4" depart="400.00" type="DEFAULT_PEDTYPE" speedFactor="1.16" duration="179.00" waitingTime="34.00" timeLoss="55.09" traveltime="145.00">
        <ride waitingTime="34.00" vehicle="t_0" depart="434.00" arrival="579.00" arrivalPos="79.20" duration="145.00" routeLength="294.31" timeLoss="55.09"/>
    </personinfo>
    <personinfo id="5" depart="500.00" type="DEFAULT_PEDTYPE" speedFactor="1.07" duration="194.00" waitingTime="33.00" timeLoss="7.18" traveltime="161.00">
        <ride waitingTime="33.00" vehicle="t_1" depart="533.00" arrival="694.00" arrivalPos="83.20" duration="161.00" routeLength="289.63" timeLoss="7.18"/>
    </personinfo>
    <personinfo id="6" depart="600.00" type="DEFAULT_PEDTYPE" speedFactor="0.93" duration="170.00" waitingTime="43.00" timeLoss="7.35" traveltime="127.00">
        <ride waitingTime="43.00" vehicle="t_0" depart="643.00" arrival="770.00" arrivalPos="78.65" duration="127.00" routeLength="306.33" timeLoss="7.35"/>
    </personinfo>
    <personinfo id="8" depart="800.00" type="DEFAULT_PEDTYPE" speedFactor="0.97" duration="170.00" waitingTime="35.00" timeLoss="6.68" traveltime="135.00">
        <ride waitingTime="35.00" vehicle="t_1" depart="835.00" arrival="970.00" arrivalPos="0.20" duration="135.00" routeLength="199.96" timeLoss="6.68"/>
    </personinfo>
    <personinfo id="7" depart="700.00" type="DEFAULT_PEDTYPE" speedFactor="1.06" duration="276.00" waitingTime="171.00" timeLoss="14.01" traveltime="105.00">
        <ride waitingTime="171.00" vehicle="t_0" depart="871.00" arrival="976.00" arrivalPos="0.20" duration="105.00" routeLength="354.75" timeLoss="14.01"/>
    </personinfo>
    <personinfo id="9" depart="900.00" type="DEFAULT_PEDTYPE" speedFactor="0.87" duration="181.00" waitingTime="87.00" timeLoss="5.83" traveltime="94.00">
        <ride waitingTime="87.00" vehicle="t_1" depart="987.00" arrival="1081.00" arrivalPos="78.65" duration="94.00" routeLength="264.08" timeLoss="5.83"/>
    </personinfo>
    <personinfo id="10" depart="1000.00" type="DEFAULT_PEDTYPE" speedFactor="1.21" duration="170.00" waitingTime="43.00" timeLoss="23.90" traveltime="127.00">
        <ride waitingTime="43.00" vehicle="t_0" depart="1043.00" arrival="1170.00" arrivalPos="78.65" duration="127.00" routeLength="273.63" timeLoss="23.90"/>
    </personinfo>
    <personinfo id="11" depart="1100.00" type="DEFAULT_PEDTYPE" speedFactor="1.10" duration="181.00" waitingTime="105.00" timeLoss="3.37" traveltime="76.00">
        <ride waitingTime="105.00" vehicle="t_0" depart="1205.00" arrival="1281.00" arrivalPos="78.65" duration="76.00" routeLength="106.37" timeLoss="3.37"/>
    </personinfo>
    <personinfo id="13" depart="1300.00" type="DEFAULT_PEDTYPE" speedFactor="0.97" duration="169.00" waitingTime="59.00" timeLoss="30.88" traveltime="110.00">
        <ride waitingTime="59.00" vehicle="t_0" depart="1359.00" arrival="1469.00" arrivalPos="83.20" duration="110.00" routeLength="166.44" timeLoss="30.88"/>
    </personinfo>
    <personinfo id="12" depart="1200.00" type="DEFAULT_PEDTYPE" speedFactor="0.98" duration="270.00" waitingTime="112.00" timeLoss="9.46" traveltime="158.00">
        <ride waitingTime="112.00" vehicle="t_1" depart="1312.00" arrival="1470.00" arrivalPos="83.20" duration="158.00" routeLength="451.72" timeLoss="9.46"/>
    </personinfo>
    <personinfo id="14" depart="1400.00" type="DEFAULT_PEDTYPE" speedFactor="0.91" duration="270.00" waitingTime="81.00" timeLoss="72.12" traveltime="189.00">
        <ride waitingTime="81.00" vehicle="t_1" depart="1481.00" arrival="1670.00" arrivalPos="78.65" duration="189.00" routeLength="586.58" timeLoss="72.12"/>
    </personinfo>
    <personinfo id="15" depart="1500.00" type="DEFAULT_PEDTYPE" speedFactor="0.92" duration="195.00" waitingTime="102.00" timeLoss="7.05" traveltime="93.00">
        <ride waitingTime="102.00" vehicle="t_0" depart="1602.00" arrival="1695.00" arrivalPos="83.20" duration="93.00" routeLength="257.01" timeLoss="7.05"/>
    </personinfo>
    <personinfo id="17" depart="1700.00" type="DEFAULT_PEDTYPE" speedFactor="0.93" duration="170.00" waitingTime="73.00" timeLoss="5.45" traveltime="97.00">
        <ride waitingTime="73.00" vehicle="t_0" depart="1773.00" arrival="1870.00" arrivalPos="0.20" duration="97.00" routeLength="204.26" timeLoss="5.45"/>
    </personinfo>
    <personinfo id="16" depart="1600.00" type="DEFAULT_PEDTYPE" speedFactor="1.03" duration="370.00" waitingTime="129.00" timeLoss="103.66" traveltime="241.00">
        <ride waitingTime="129.00" vehicle="t_1" depart="1729.00" arrival="1970.00" arrivalPos="83.20" duration="241.00" routeLength="648.30" timeLoss="103.66"/>
    </personinfo>
    <personinfo id="18" depart="1800.00" type="DEFAULT_PEDTYPE" speedFactor="1.06" duration="206.00" waitingTime="87.00" timeLoss="14.41" traveltime="119.00">
        <ride waitingTime="87.00" vehicle="t_0" depart="1887.00" arrival="2006.00" arrivalPos="79.20" duration="119.00" routeLength="528.24" timeLoss="14.41"/>
    </personinfo>
    <personinfo id="19" depart="1900.00" type="DEFAULT_PEDTYPE" speedFactor="1.10" duration="335.00" waitingTime="178.00" timeLoss="38.13" traveltime="157.00">
        <ride waitingTime="178.00" vehicle="t_1" depart="2078.00" arrival="2235.00" arrivalPos="83.20" duration="157.00" routeLength="664.62" timeLoss="38.13"/>
    </personinfo>
    <personinfo id="20" depart="2000.00" type="DEFAULT_PEDTYPE" speedFactor="0.95" duration="270.00" waitingTime="87.00" timeLoss="52.26" traveltime="183.00">
        <ride waitingTime="87.00" vehicle="t_0" depart="2087.00" arrival="2270.00" arrivalPos="79.20" duration="183.00" routeLength="345.36" timeLoss="52.26"/>
    </personinfo>
    <personinfo id="23" depart="2300.00" type="DEFAULT_PEDTYPE" speedFactor="1.07" duration="197.00" waitingTime="93.00" timeLoss="9.28" traveltime="104.00">
        <ride waitingTime="93.00" vehicle="t_1" depart="2393.00" arrival="2497.00" arrivalPos="0.20" duration="104.00" routeLength="292.46" timeLoss="9.28"/>
    </personinfo>
    <personinfo id="21" depart="2100.00" type="DEFAULT_PEDTYPE" speedFactor="0.93" duration="412.00" waitingTime="262.00" timeLoss="44.49" traveltime="150.00">
        <ride waitingTime="262.00" vehicle="t_0" depart="2362.00" arrival="2512.00" arrivalPos="83.20" duration="150.00" routeLength="560.19" timeLoss="44.49"/>
    </personinfo>
    <personinfo id="24" depart="2400.00" type="DEFAULT_PEDTYPE" speedFactor="0.85" duration="175.00" waitingTime="28.00" timeLoss="6.82" traveltime="147.00">
        <ride waitingTime="28.00" vehicle="t_1" depart="2428.00" arrival="2575.00" arrivalPos="78.65" duration="147.00" routeLength="94.92" timeLoss="6.82"/>
    </personinfo>
    <personinfo id="22" depart="2200.00" type="DEFAULT_PEDTYPE" speedFactor="0.97" duration="470.00" waitingTime="149.00" timeLoss="79.30" traveltime="321.00">
        <ride waitingTime="149.00" vehicle="t_0" depart="2349.00" arrival="2670.00" arrivalPos="83.20" duration="321.00" routeLength="1024.73" timeLoss="79.30"/>
    </personinfo>
    <personinfo id="25" depart="2500.00" type="DEFAULT_PEDTYPE" speedFactor="1.23" duration="188.00" waitingTime="98.00" timeLoss="8.41" traveltime="90.00">
        <ride waitingTime="98.00" vehicle="t_1" depart="2598.00" arrival="2688.00" arrivalPos="78.65" duration="90.00" routeLength="180.15" timeLoss="8.41"/>
    </personinfo>
    <personinfo id="26" depart="2600.00" type="DEFAULT_PEDTYPE" speedFactor="1.08" duration="271.00" waitingTime="161.00" timeLoss="7.90" traveltime="110.00">
        <ride waitingTime="161.00" vehicle="t_0" depart="2761.00" arrival="2871.00" arrivalPos="79.20" duration="110.00" routeLength="480.22" timeLoss="7.90"/>
    </personinfo>
    <personinfo id="27" depart="2700.00" type="DEFAULT_PEDTYPE" speedFactor="0.89" duration="270.00" waitingTime="96.00" timeLoss="30.28" traveltime="174.00">
        <ride waitingTime="96.00" vehicle="t_1" depart="2796.00" arrival="2970.00" arrivalPos="83.20" duration="174.00" routeLength="367.92" timeLoss="30.28"/>
    </personinfo>
    <personinfo id="28" depart="2800.00" type="DEFAULT_PEDTYPE" speedFactor="1.04" duration="270.00" waitingTime="132.00" timeLoss="5.52" traveltime="138.00">
        <ride waitingTime="132.00" vehicle="t_0" depart="2932.00" arrival="3070.00" arrivalPos="0.20" duration="138.00" routeLength="178.54" timeLoss="5.52"/>
    </personinfo>
    <personinfo id="29" depart="2900.00" type="DEFAULT_PEDTYPE" speedFactor="1.06" duration="267.00" waitingTime="124.00" timeLoss="33.91" traveltime="143.00">
        <ride waitingTime="124.00" vehicle="t_1" depart="3024.00" arrival="3167.00" arrivalPos="83.20" duration="143.00" routeLength="587.53" timeLoss="33.91"/>
    </personinfo>
    <personinfo id="30" depart="3000.00" type="DEFAULT_PEDTYPE" speedFactor="1.09" duration="186.00" waitingTime="79.00" timeLoss="23.78" traveltime="107.00">
        <ride waitingTime="79.00" vehicle="t_0" depart="3079.00" arrival="3186.00" arrivalPos="0.20" duration="107.00" routeLength="203.76" timeLoss="23.78"/>
    </personinfo>
    <personinfo id="31" depart="3100.00" type="DEFAULT_PEDTYPE" speedFactor="1.01" duration="187.00" waitingTime="101.00" timeLoss="5.46" traveltime="86.00">
        <ride waitingTime="101.00" vehicle="t_0" depart="3201.00" arrival="3287.00" arrivalPos="0.20" duration="86.00" routeLength="187.89" timeLoss="5.46"/>
    </personinfo>
    <personinfo id="33" depart="3300.00" type="DEFAULT_PEDTYPE" speedFactor="0.92" duration="170.00" waitingTime="54.00" timeLoss="5.26" traveltime="116.00">
        <ride waitingTime="54.00" vehicle="t_1" depart="3354.00" arrival="3470.00" arrivalPos="78.65" duration="116.00" routeLength="276.27" timeLoss="5.26"/>
    </personinfo>
    <personinfo id="32" depart="3200.00" type="DEFAULT_PEDTYPE" speedFactor="1.02" duration="295.00" waitingTime="146.00" timeLoss="62.87" traveltime="149.00">
        <ride waitingTime="146.00" vehicle="t_0" depart="3346.00" arrival="3495.00" arrivalPos="83.20" duration="149.00" routeLength="265.88" timeLoss="62.87"/>
    </personinfo>
    <personinfo id="34" depart="3400.00" type="DEFAULT_PEDTYPE" speedFactor="1.01" duration="270.00" waitingTime="117.00" timeLoss="7.94" traveltime="153.00">
        <ride waitingTime="117.00" vehicle="t_1" depart="3517.00" arrival="3670.00" arrivalPos="78.65" duration="153.00" routeLength="273.19" timeLoss="7.94"/>
    </personinfo>
    <personinfo id="35" depart="3500.00" type="DEFAULT_PEDTYPE" speedFactor="1.08" duration="270.00" waitingTime="75.00" timeLoss="87.95" traveltime="195.00">
        <ride waitingTime="75.00" vehicle="t_0" depart="3575.00" arrival="3770.00" arrivalPos="79.20" duration="195.00" routeLength="470.74" timeLoss="87.95"/>
    </personinfo>
    <personinfo id="36" depart="3600.00" type="DEFAULT_PEDTYPE" speedFactor="1.11" duration="293.00" waitingTime="197.00" timeLoss="4.52" traveltime="96.00">
        <ride waitingTime="197.00" vehicle="t_1" depart="3797.00" arrival="3893.00" arrivalPos="0.20" duration="96.00" routeLength="371.14" timeLoss="4.52"/>
    </personinfo>
    <personinfo id="37" depart="3700.00" type="DEFAULT_PEDTYPE" speedFactor="1.04" duration="200.00" waitingTime="93.00" timeLoss="15.75" traveltime="107.00">
        <ride waitingTime="93.00" vehicle="t_0" depart="3793.00" arrival="3900.00" arrivalPos="79.20" duration="107.00" routeLength="318.30" timeLoss="15.75"/>
    </personinfo>
    <personinfo id="38" depart="3800.00" type="DEFAULT_PEDTYPE" speedFactor="1.01" duration="283.00" waitingTime="123.00" timeLoss="38.64" traveltime="160.00">
        <ride waitingTime="123.00" vehicle="t_1" depart="3923.00" arrival="4083.00" arrivalPos="79.20" duration="160.00" routeLength="666.45" timeLoss="38.64"/>
    </personinfo>
    <personinfo id="39" depart="3900.00" type="DEFAULT_PEDTYPE" speedFactor="1.07" duration="270.00" waitingTime="111.00" timeLoss="32.60" traveltime="159.00">
        <ride waitingTime="111.00" vehicle="t_0" depart="4011.00" arrival="4170.00" arrivalPos="0.20" duration="159.00" routeLength="382.53" timeLoss="32.60"/>
    </personinfo>
    <personinfo id="41" depart="4100.00" type="DEFAULT_PEDTYPE" speedFactor="0.96" duration="154.00" waitingTime="78.00" timeLoss="4.11" traveltime="76.00">
        <ride waitingTime="78.00" vehicle="t_0" depart="4178.00" arrival="4254.00" arrivalPos="78.65" duration="76.00" routeLength="83.44" timeLoss="4.11"/>
    </personinfo>
    <personinfo id="40" depart="4000.00" type="DEFAULT_PEDTYPE" speedFactor="0.98" duration="270.00" waitingTime="104.00" timeLoss="52.78" traveltime="166.00">
        <ride waitingTime="104.00" vehicle="t_1" depart="4104.00" arrival="4270.00" arrivalPos="83.20" duration="166.00" routeLength="458.22" timeLoss="52.78"/>
    </personinfo>
    <personinfo id="42" depart="4200.00" type="DEFAULT_PEDTYPE" speedFactor="1.03" duration="170.00" waitingTime="78.00" timeLoss="2.16" traveltime="92.00">
        <ride waitingTime="78.00" vehicle="t_1" depart="4278.00" arrival="4370.00" arrivalPos="78.65" duration="92.00" routeLength="165.93" timeLoss="2.16"/>
    </personinfo>
    <personinfo id="43" depart="4300.00" type="DEFAULT_PEDTYPE" speedFactor="1.02" duration="187.00" waitingTime="93.00" timeLoss="6.56" traveltime="94.00">
        <ride waitingTime="93.00" vehicle="t_1" depart="4393.00" arrival="4487.00" arrivalPos="83.20" duration="94.00" routeLength="254.31" timeLoss="6.56"/>
    </personinfo>
    <personinfo id="44" depart="4400.00" type="DEFAULT_PEDTYPE" speedFactor="0.99" duration="265.00" waitingTime="154.00" timeLoss="13.66" traveltime="111.00">
        <ride waitingTime="154.00" vehicle="t_0" depart="4554.00" arrival="4665.00" arrivalPos="83.20" duration="111.00" routeLength="392.37" timeLoss="13.66"/>
    </personinfo>
    <personinfo id="45" depart="4500.00" type="DEFAULT_PEDTYPE" speedFactor="0.87" duration="170.00" waitingTime="50.00" timeLoss="6.60" traveltime="120.00">
        <ride waitingTime="50.00" vehicle="t_1" depart="4550.00" arrival="4670.00" arrivalPos="79.20" duration="120.00" routeLength="299.87" timeLoss="6.60"/>
    </personinfo>
    <personinfo id="46" depart="4600.00" type="DEFAULT_PEDTYPE" speedFactor="1.05" duration="221.00" waitingTime="108.00" timeLoss="67.31" traveltime="113.00">
        <ride waitingTime="108.00" vehicle="t_1" depart="4708.00" arrival="4821.00" arrivalPos="4.99" duration="113.00" routeLength="512.72" timeLoss="67.31"/>
    </personinfo>
    <personinfo id="47" depart="4700.00" type="DEFAULT_PEDTYPE" speedFactor="1.00" duration="174.00" waitingTime="85.00" timeLoss="3.83" traveltime="89.00">
        <ride waitingTime="85.00" vehicle="t_0" depart="4785.00" arrival="4874.00" arrivalPos="83.20" duration="89.00" routeLength="282.30" timeLoss="3.83"/>
    </personinfo>
    <personinfo id="48" depart="4800.00" type="DEFAULT_PEDTYPE" speedFactor="1.24" duration="203.00" waitingTime="22.00" timeLoss="13.70" traveltime="181.00">
        <ride waitingTime="22.00" vehicle="t_1" depart="4822.00" arrival="5003.00" arrivalPos="79.20" duration="181.00" routeLength="386.95" timeLoss="13.70"/>
    </personinfo>
    <personinfo id="49" depart="4900.00" type="DEFAULT_PEDTYPE" speedFactor="1.15" duration="212.00" waitingTime="16.00" timeLoss="36.08" traveltime="196.00">
        <ride waitingTime="16.00" vehicle="t_1" depart="4916.00" arrival="5112.00" arrivalPos="78.65" duration="196.00" routeLength="355.47" timeLoss="36.08"/>
    </personinfo>
</tripinfos>
