<?xml version="1.0" encoding="UTF-8"?>

<!-- generated on 2026-03-16T16:30:45.129249+08:00 by Eclipse SUMO sumo 1.26.0
<sumoConfiguration xmlns:xsi="http://www.w3.org/2001/XMLSchema-instance" xsi:noNamespaceSchemaLocation="http://sumo.dlr.de/xsd/sumoConfiguration.xsd">

    <input>
        <net-file value="..\SmallTestingMap\map.net.xml"/>
        <route-files value="..\SmallTestingMap\map.rou.xml,..\SmallTestingMap\requests.rou.xml"/>
    </input>

    <output>
        <tripinfo-output value="..\SmallTestingMap\tripinfos.xml"/>
        <stop-output value="..\SmallTestingMap\stopinfos.xml"/>
        <statistic-output value="..\SmallTestingMap\stats.xml"/>
    </output>

    <time>
        <step-length value="1.0"/>
    </time>

    <report>
        <verbose value="true"/>
        <duration-log.statistics value="true"/>
        <no-step-log value="true"/>
    </report>

    <taxi_device>
        <device.taxi.dispatch-algorithm value="traci"/>
    </taxi_device>

    <traci_server>
        <remote-port value="53845"/>
    </traci_server>

</sumoConfiguration>
-->

<tripinfos xmlns:xsi="http://www.w3.org/2001/XMLSchema-instance" xsi:noNamespaceSchemaLocation="http://sumo.dlr.de/xsd/tripinfo_file.xsd">
    <personinfo id="0" depart="0.00" type="DEFAULT_PEDTYPE" speedFactor="1.01" duration="170.00" waitingTime="60.00" timeLoss="6.69" traveltime="110.00">
        <ride waitingTime="60.00" vehicle="t_1" depart="60.00" arrival="170.00" arrivalPos="0.20" duration="110.00" routeLength="213.44" timeLoss="6.69"/>
    </personinfo>
    <personinfo id="1" depart="100.00" type="DEFAULT_PEDTYPE" speedFactor="1.08" duration="270.00" waitingTime="132.00" timeLoss="12.67" traveltime="138.00">
        <ride waitingTime="132.00" vehicle="t_1" depart="232.00" arrival="370.00" arrivalPos="83.20" duration="138.00" routeLength="551.75" timeLoss="12.67"/>
    </personinfo>
    <personinfo id="2" depart="200.00" type="DEFAULT_PEDTYPE" speedFactor="1.12" duration="191.00" waitingTime="53.00" timeLoss="46.71" traveltime="138.00">
        <ride waitingTime="53.00" vehicle="t_0" depart="253.00" arrival="391.00" arrivalPos="83.20" duration="138.00" routeLength="291.67" timeLoss="46.71"/>
    </personinfo>
    <personinfo id="3" depart="300.00" type="DEFAULT_PEDTYPE" speedFactor="0.99" duration="270.00" waitingTime="120.00" timeLoss="46.47" traveltime="150.00">
        <ride waitingTime="120.00" vehicle="t_1" depart="420.00" arrival="570.00" arrivalPos="78.65" duration="150.00" routeLength="451.16" timeLoss="46.47"/>
    </personinfo>
    <personinfo id="4" depart="400.00" type="DEFAULT_PEDTYPE" speedFactor="0.93" duration="179.00" waitingTime="34.00" timeLoss="55.09" traveltime="145.00">
        <ride waitingTime="34.00" vehicle="t_0" depart="434.00" arrival="579.00" arrivalPos="79.20" duration="145.00" routeLength="294.31" timeLoss="55.09"/>
    </personinfo>
    <personinfo id="5" depart="500.00" type="DEFAULT_PEDTYPE" speedFactor="0.97" duration="192.00" waitingTime="96.00" timeLoss="6.48" traveltime="96.00">
        <ride waitingTime="96.00" vehicle="t_1" depart="596.00" arrival="692.00" arrivalPos="83.20" duration="96.00" routeLength="292.44" timeLoss="6.48"/>
    </personinfo>
    <personinfo id="6" depart="600.00" type="DEFAULT_PEDTYPE" speedFactor="0.94" duration="170.00" waitingTime="42.00" timeLoss="8.17" traveltime="128.00">
        <ride waitingTime="42.00" vehicle="t_0" depart="642.00" arrival="770.00" arrivalPos="78.65" duration="128.00" routeLength="306.35" timeLoss="8.17"/>
    </personinfo>
    <personinfo id="8" depart="800.00" type="DEFAULT_PEDTYPE" speedFactor="0.82" duration="170.00" waitingTime="36.00" timeLoss="6.46" traveltime="134.00">
        <ride waitingTime="36.00" vehicle="t_1" depart="836.00" arrival="970.00" arrivalPos="0.20" duration="134.00" routeLength="199.95" timeLoss="6.46"/>
    </personinfo>
    <personinfo id="7" depart="700.00" type="DEFAULT_PEDTYPE" speedFactor="1.06" duration="278.00" waitingTime="171.00" timeLoss="15.24" traveltime="107.00">
        <ride waitingTime="171.00" vehicle="t_0" depart="871.00" arrival="978.00" arrivalPos="0.20" duration="107.00" routeLength="354.79" timeLoss="15.24"/>
    </personinfo>
    <personinfo id="9" depart="900.00" type="DEFAULT_PEDTYPE" speedFactor="1.12" duration="182.00" waitingTime="87.00" timeLoss="6.66" traveltime="95.00">
        <ride waitingTime="87.00" vehicle="t_1" depart="987.00" arrival="1082.00" arrivalPos="78.65" duration="95.00" routeLength="264.08" timeLoss="6.66"/>
    </personinfo>
    <personinfo id="10" depart="1000.00" type="DEFAULT_PEDTYPE" speedFactor="1.01" duration="170.00" waitingTime="43.00" timeLoss="23.72" traveltime="127.00">
        <ride waitingTime="43.00" vehicle="t_0" depart="1043.00" arrival="1170.00" arrivalPos="78.65" duration="127.00" routeLength="273.60" timeLoss="23.72"/>
    </personinfo>
    <personinfo id="11" depart="1100.00" type="DEFAULT_PEDTYPE" speedFactor="0.92" duration="182.00" waitingTime="106.00" timeLoss="2.78" traveltime="76.00">
        <ride waitingTime="106.00" vehicle="t_0" depart="1206.00" arrival="1282.00" arrivalPos="78.65" duration="76.00" routeLength="106.40" timeLoss="2.78"/>
    </personinfo>
    <personinfo id="13" depart="1300.00" type="DEFAULT_PEDTYPE" speedFactor="0.89" duration="169.00" waitingTime="59.00" timeLoss="30.88" traveltime="110.00">
        <ride waitingTime="59.00" vehicle="t_0" depart="1359.00" arrival="1469.00" arrivalPos="83.20" duration="110.00" routeLength="166.44" timeLoss="30.88"/>
    </personinfo>
    <personinfo id="12" depart="1200.00" type="DEFAULT_PEDTYPE" speedFactor="1.08" duration="270.00" waitingTime="112.00" timeLoss="10.47" traveltime="158.00">
        <ride waitingTime="112.00" vehicle="t_1" depart="1312.00" arrival="1470.00" arrivalPos="83.20" duration="158.00" routeLength="451.72" timeLoss="10.47"/>
    </personinfo>
    <personinfo id="14" depart="1400.00" type="DEFAULT_PEDTYPE" speedFactor="1.06" duration="270.00" waitingTime="79.00" timeLoss="75.09" traveltime="191.00">
        <ride waitingTime="79.00" vehicle="t_1" depart="1479.00" arrival="1670.00" arrivalPos="78.65" duration="191.00" routeLength="586.60" timeLoss="75.09"/>
    </personinfo>
    <personinfo id="15" depart="1500.00" type="DEFAULT_PEDTYPE" speedFactor="1.02" duration="196.00" waitingTime="102.00" timeLoss="7.27" traveltime="94.00">
        <ride waitingTime="102.00" vehicle="t_0" depart="1602.00" arrival="1696.00" arrivalPos="83.20" duration="94.00" routeLength="257.06" timeLoss="7.27"/>
    </personinfo>
    <personinfo id="17" depart="1700.00" type="DEFAULT_PEDTYPE" speedFactor="0.98" duration="170.00" waitingTime="73.00" timeLoss="5.13" traveltime="97.00">
        <ride waitingTime="73.00" vehicle="t_0" depart="1773.00" arrival="1870.00" arrivalPos="0.20" duration="97.00" routeLength="204.26" timeLoss="5.13"/>
    </personinfo>
    <personinfo id="16" depart="1600.00" type="DEFAULT_PEDTYPE" speedFactor="0.97" duration="370.00" waitingTime="128.00" timeLoss="106.05" traveltime="242.00">
        <ride waitingTime="128.00" vehicle="t_1" depart="1728.00" arrival="1970.00" arrivalPos="83.20" duration="242.00" routeLength="648.34" timeLoss="106.05"/>
    </personinfo>
    <personinfo id="18" depart="1800.00" type="DEFAULT_PEDTYPE" speedFactor="0.85" duration="207.00" waitingTime="87.00" timeLoss="14.01" traveltime="120.00">
        <ride waitingTime="87.00" vehicle="t_0" depart="1887.00" arrival="2007.00" arrivalPos="79.20" duration="120.00" routeLength="528.20" timeLoss="14.01"/>
    </personinfo>
    <personinfo id="20" depart="2000.00" type="DEFAULT_PEDTYPE" speedFactor="0.89" duration="232.00" waitingTime="88.00" timeLoss="51.46" traveltime="144.00">
        <ride waitingTime="88.00" vehicle="t_0" depart="2088.00" arrival="2232.00" arrivalPos="79.20" duration="144.00" routeLength="345.31" timeLoss="51.46"/>
    </personinfo>
    <personinfo id="19" depart="1900.00" type="DEFAULT_PEDTYPE" speedFactor="0.97" duration="370.00" waitingTime="179.00" timeLoss="36.10" traveltime="191.00">
        <ride waitingTime="179.00" vehicle="t_1" depart="2079.00" arrival="2270.00" arrivalPos="83.20" duration="191.00" routeLength="664.65" timeLoss="36.10"/>
    </personinfo>
    <personinfo id="21" depart="2100.00" type="DEFAULT_PEDTYPE" speedFactor="1.16" duration="322.00" waitingTime="167.00" timeLoss="49.60" traveltime="155.00">
        <ride waitingTime="167.00" vehicle="t_0" depart="2267.00" arrival="2422.00" arrivalPos="83.20" duration="155.00" routeLength="560.16" timeLoss="49.60"/>
    </personinfo>
    <personinfo id="22" depart="2200.00" type="DEFAULT_PEDTYPE" speedFactor="1.02" duration="270.00" waitingTime="124.00" timeLoss="10.92" traveltime="146.00">
        <ride waitingTime="124.00" vehicle="t_1" depart="2324.00" arrival="2470.00" arrivalPos="83.20" duration="146.00" routeLength="657.80" timeLoss="10.92"/>
    </personinfo>
    <personinfo id="23" depart="2300.00" type="DEFAULT_PEDTYPE" speedFactor="1.03" duration="211.00" waitingTime="146.00" timeLoss="28.83" traveltime="65.00">
        <ride waitingTime="146.00" vehicle="t_0" depart="2446.00" arrival="2511.00" arrivalPos="0.20" duration="65.00" routeLength="292.46" timeLoss="28.83"/>
    </personinfo>
    <personinfo id="24" depart="2400.00" type="DEFAULT_PEDTYPE" speedFactor="1.02" duration="270.00" waitingTime="152.00" timeLoss="3.65" traveltime="118.00">
        <ride waitingTime="152.00" vehicle="t_1" depart="2552.00" arrival="2670.00" arrivalPos="78.65" duration="118.00" routeLength="94.91" timeLoss="3.65"/>
    </personinfo>
    <personinfo id="25" depart="2500.00" type="DEFAULT_PEDTYPE" speedFactor="1.09" duration="298.00" waitingTime="71.00" timeLoss="7.22" traveltime="227.00">
        <ride waitingTime="71.00" vehicle="t_0" depart="2571.00" arrival="2798.00" arrivalPos="78.65" duration="227.00" routeLength="180.10" timeLoss="7.22"/>
    </personinfo>
    <personinfo id="26" depart="2600.00" type="DEFAULT_PEDTYPE" speedFactor="1.13" duration="270.00" waitingTime="124.00" timeLoss="35.10" traveltime="146.00">
        <ride waitingTime="124.00" vehicle="t_1" depart="2724.00" arrival="2870.00" arrivalPos="79.20" duration="146.00" routeLength="480.19" timeLoss="35.10"/>
    </personinfo>
    <personinfo id="28" depart="2800.00" type="DEFAULT_PEDTYPE" speedFactor="0.96" duration="216.00" waitingTime="131.00" timeLoss="4.69" traveltime="85.00">
        <ride waitingTime="131.00" vehicle="t_1" depart="2931.00" arrival="3016.00" arrivalPos="0.20" duration="85.00" routeLength="178.56" timeLoss="4.69"/>
    </personinfo>
    <personinfo id="27" depart="2700.00" type="DEFAULT_PEDTYPE" speedFactor="1.00" duration="370.00" waitingTime="188.00" timeLoss="29.81" traveltime="182.00">
        <ride waitingTime="188.00" vehicle="t_0" depart="2888.00" arrival="3070.00" arrivalPos="83.20" duration="182.00" routeLength="367.93" timeLoss="29.81"/>
    </personinfo>
    <personinfo id="29" depart="2900.00" type="DEFAULT_PEDTYPE" speedFactor="0.98" duration="270.00" waitingTime="146.00" timeLoss="11.90" traveltime="124.00">
        <ride waitingTime="146.00" vehicle="t_1" depart="3046.00" arrival="3170.00" arrivalPos="83.20" duration="124.00" routeLength="587.49" timeLoss="11.90"/>
    </personinfo>
    <personinfo id="30" depart="3000.00" type="DEFAULT_PEDTYPE" speedFactor="0.93" duration="209.00" waitingTime="120.00" timeLoss="5.49" traveltime="89.00">
        <ride waitingTime="120.00" vehicle="t_0" depart="3120.00" arrival="3209.00" arrivalPos="0.20" duration="89.00" routeLength="203.74" timeLoss="5.49"/>
    </personinfo>
    <personinfo id="31" depart="3100.00" type="DEFAULT_PEDTYPE" speedFactor="1.06" duration="194.00" waitingTime="105.00" timeLoss="6.35" traveltime="89.00">
        <ride waitingTime="105.00" vehicle="t_1" depart="3205.00" arrival="3294.00" arrivalPos="0.20" duration="89.00" routeLength="187.91" timeLoss="6.35"/>
    </personinfo>
    <personinfo id="32" depart="3200.00" type="DEFAULT_PEDTYPE" speedFactor="0.96" duration="204.00" waitingTime="55.00" timeLoss="63.63" traveltime="149.00">
        <ride waitingTime="55.00" vehicle="t_0" depart="3255.00" arrival="3404.00" arrivalPos="83.20" duration="149.00" routeLength="265.88" timeLoss="63.63"/>
    </personinfo>
    <personinfo id="33" depart="3300.00" type="DEFAULT_PEDTYPE" speedFactor="0.94" duration="204.00" waitingTime="93.00" timeLoss="24.83" traveltime="111.00">
        <ride waitingTime="93.00" vehicle="t_1" depart="3393.00" arrival="3504.00" arrivalPos="78.65" duration="111.00" routeLength="276.27" timeLoss="24.83"/>
    </personinfo>
    <personinfo id="34" depart="3400.00" type="DEFAULT_PEDTYPE" speedFactor="0.97" duration="275.00" waitingTime="130.00" timeLoss="53.53" traveltime="145.00">
        <ride waitingTime="130.00" vehicle="t_1" depart="3530.00" arrival="3675.00" arrivalPos="78.65" duration="145.00" routeLength="273.20" timeLoss="53.53"/>
    </personinfo>
    <personinfo id="35" depart="3500.00" type="DEFAULT_PEDTYPE" speedFactor="1.00" duration="270.00" waitingTime="76.00" timeLoss="85.30" traveltime="194.00">
        <ride waitingTime="76.00" vehicle="t_0" depart="3576.00" arrival="3770.00" arrivalPos="79.20" duration="194.00" routeLength="470.72" timeLoss="85.30"/>
    </personinfo>
    <personinfo id="36" depart="3600.00" type="DEFAULT_PEDTYPE" speedFactor="0.99" duration="293.00" waitingTime="195.00" timeLoss="5.79" traveltime="98.00">
        <ride waitingTime="195.00" vehicle="t_1" depart="3795.00" arrival="3893.00" arrivalPos="0.20" duration="98.00" routeLength="371.12" timeLoss="5.79"/>
    </personinfo>
    <personinfo id="37" depart="3700.00" type="DEFAULT_PEDTYPE" speedFactor="1.00" duration="200.00" waitingTime="93.00" timeLoss="15.81" traveltime="107.00">
        <ride waitingTime="93.00" vehicle="t_0" depart="3793.00" arrival="3900.00" arrivalPos="79.20" duration="107.00" routeLength="318.31" timeLoss="15.81"/>
    </personinfo>
    <personinfo id="38" depart="3800.00" type="DEFAULT_PEDTYPE" speedFactor="0.97" duration="282.00" waitingTime="121.00" timeLoss="40.34" traveltime="161.00">
        <ride waitingTime="121.00" vehicle="t_1" depart="3921.00" arrival="4082.00" arrivalPos="79.20" duration="161.00" routeLength="666.45" timeLoss="40.34"/>
    </personinfo>
    <personinfo id="39" depart="3900.00" type="DEFAULT_PEDTYPE" speedFactor="1.08" duration="270.00" waitingTime="111.00" timeLoss="32.78" traveltime="159.00">
        <ride waitingTime="111.00" vehicle="t_0" depart="4011.00" arrival="4170.00" arrivalPos="0.20" duration="159.00" routeLength="382.56" timeLoss="32.78"/>
    </personinfo>
    <personinfo id="41" depart="4100.00" type="DEFAULT_PEDTYPE" speedFactor="0.97" duration="154.00" waitingTime="78.00" timeLoss="3.57" traveltime="76.00">
        <ride waitingTime="78.00" vehicle="t_0" depart="4178.00" arrival="4254.00" arrivalPos="78.65" duration="76.00" routeLength="83.42" timeLoss="3.57"/>
    </personinfo>
    <personinfo id="40" depart="4000.00" type="DEFAULT_PEDTYPE" speedFactor="1.02" duration="270.00" waitingTime="102.00" timeLoss="53.50" traveltime="168.00">
        <ride waitingTime="102.00" vehicle="t_1" depart="4102.00" arrival="4270.00" arrivalPos="83.20" duration="168.00" routeLength="458.17" timeLoss="53.50"/>
    </personinfo>
    <personinfo id="42" depart="4200.00" type="DEFAULT_PEDTYPE" speedFactor="0.92" duration="170.00" waitingTime="78.00" timeLoss="2.43" traveltime="92.00">
        <ride waitingTime="78.00" vehicle="t_1" depart="4278.00" arrival="4370.00" arrivalPos="78.65" duration="92.00" routeLength="165.93" timeLoss="2.43"/>
    </personinfo>
    <personinfo id="43" depart="4300.00" type="DEFAULT_PEDTYPE" speedFactor="0.93" duration="188.00" waitingTime="93.00" timeLoss="6.17" traveltime="95.00">
        <ride waitingTime="93.00" vehicle="t_1" depart="4393.00" arrival="4488.00" arrivalPos="83.20" duration="95.00" routeLength="254.39" timeLoss="6.17"/>
    </personinfo>
    <personinfo id="44" depart="4400.00" type="DEFAULT_PEDTYPE" speedFactor="0.99" duration="270.00" waitingTime="153.00" timeLoss="15.66" traveltime="117.00">
        <ride waitingTime="153.00" vehicle="t_0" depart="4553.00" arrival="4670.00" arrivalPos="83.20" duration="117.00" routeLength="392.38" timeLoss="15.66"/>
    </personinfo>
    <personinfo id="45" depart="4500.00" type="DEFAULT_PEDTYPE" speedFactor="1.18" duration="270.00" waitingTime="96.00" timeLoss="23.13" traveltime="174.00">
        <ride waitingTime="96.00" vehicle="t_1" depart="4596.00" arrival="4770.00" arrivalPos="79.20" duration="174.00" routeLength="299.92" timeLoss="23.13"/>
    </personinfo>
    <personinfo id="46" depart="4600.00" type="DEFAULT_PEDTYPE" speedFactor="1.00" duration="290.00" waitingTime="97.00" timeLoss="81.79" traveltime="193.00">
        <ride waitingTime="97.00" vehicle="t_0" depart="4697.00" arrival="4890.00" arrivalPos="79.20" duration="193.00" routeLength="586.95" timeLoss="81.79"/>
    </personinfo>
    <personinfo id="47" depart="4700.00" type="DEFAULT_PEDTYPE" speedFactor="0.84" duration="273.00" waitingTime="185.00" timeLoss="2.42" traveltime="88.00">
        <ride waitingTime="185.00" vehicle="t_1" depart="4885.00" arrival="4973.00" arrivalPos="83.20" duration="88.00" routeLength="282.21" timeLoss="2.42"/>
    </personinfo>
    <personinfo id="48" depart="4800.00" type="DEFAULT_PEDTYPE" speedFactor="1.08" duration="273.00" waitingTime="157.00" timeLoss="17.25" traveltime="116.00">
        <ride waitingTime="157.00" vehicle="t_0" depart="4957.00" arrival="5073.00" arrivalPos="79.20" duration="116.00" routeLength="386.91" timeLoss="17.25"/>
    </personinfo>
    <personinfo id="49" depart="4900.00" type="DEFAULT_PEDTYPE" speedFactor="1.04" duration="217.00" waitingTime="114.00" timeLoss="9.85" traveltime="103.00">
        <ride waitingTime="114.00" vehicle="t_1" depart="5014.00" arrival="5117.00" arrivalPos="78.65" duration="103.00" routeLength="359.07" timeLoss="9.85"/>
    </personinfo>
</tripinfos>
