<?xml version="1.0" encoding="UTF-8"?>

<!-- generated on 2025-10-11 23:40:31 by Eclipse SUMO GUI Version 1.24.0
<sumoConfiguration xmlns:xsi="http://www.w3.org/2001/XMLSchema-instance" xsi:noNamespaceSchemaLocation="http://sumo.dlr.de/xsd/sumoConfiguration.xsd">

    <input>
        <net-file value=".\RLTrainingMap2\osm.net.xml"/>
        <route-files value=".\RLTrainingMap2\map.rou.xml,.\RLTrainingMap2\persontripsridecheck.rou.xml"/>
    </input>

    <output>
        <tripinfo-output value=".\RLTrainingMap2\tripinfos.xml"/>
        <stop-output value=".\RLTrainingMap2\stopinfos.xml"/>
        <statistic-output value=".\RLTrainingMap2\stats.xml"/>
    </output>

    <time>
        <step-length value="1.0"/>
    </time>

    <report>
        <verbose value="true"/>
        <duration-log.statistics value="true"/>
        <no-step-log value="true"/>
    </report>

    <taxi_device>
        <device.taxi.dispatch-algorithm value="traci"/>
    </taxi_device>

    <traci_server>
        <remote-port value="50202"/>
    </traci_server>

</sumoConfiguration>
-->

<tripinfos xmlns:xsi="http://www.w3.org/2001/XMLSchema-instance" xsi:noNamespaceSchemaLocation="http://sumo.dlr.de/xsd/tripinfo_file.xsd">
    <personinfo id="0" depart="6.00" type="DEFAULT_PEDTYPE" speedFactor="1.01" duration="252.00" waitingTime="107.00" timeLoss="24.92" traveltime="145.00">
        <ride waitingTime="107.00" vehicle="t_0" depart="113.00" arrival="258.00" arrivalPos="21.48" duration="145.00" routeLength="1386.26" timeLoss="24.92"/>
    </personinfo>
    <personinfo id="1" depart="27.00" type="DEFAULT_PEDTYPE" speedFactor="1.08" duration="422.00" waitingTime="65.00" timeLoss="65.82" traveltime="357.00">
        <ride waitingTime="65.00" vehicle="t_1" depart="92.00" arrival="449.00" arrivalPos="77.16" duration="357.00" routeLength="3968.09" timeLoss="65.82"/>
    </personinfo>
    <personinfo id="12" depart="116.00" type="DEFAULT_PEDTYPE" speedFactor="0.99" duration="521.00" waitingTime="309.00" timeLoss="29.76" traveltime="212.00">
        <ride waitingTime="309.00" vehicle="t_0" depart="425.00" arrival="637.00" arrivalPos="26.94" duration="212.00" routeLength="2514.15" timeLoss="29.76"/>
    </personinfo>
    <personinfo id="13" depart="127.00" type="DEFAULT_PEDTYPE" speedFactor="0.93" duration="769.00" waitingTime="586.00" timeLoss="30.80" traveltime="183.00">
        <ride waitingTime="586.00" vehicle="t_1" depart="713.00" arrival="896.00" arrivalPos="261.72" duration="183.00" routeLength="1471.61" timeLoss="30.80"/>
    </personinfo>
    <personinfo id="20" depart="207.00" type="DEFAULT_PEDTYPE" speedFactor="0.97" duration="788.00" waitingTime="637.00" timeLoss="26.49" traveltime="151.00">
        <ride waitingTime="637.00" vehicle="t_0" depart="844.00" arrival="995.00" arrivalPos="81.57" duration="151.00" routeLength="1117.61" timeLoss="26.49"/>
    </personinfo>
    <personinfo id="11" depart="112.00" type="DEFAULT_PEDTYPE" speedFactor="1.12" duration="1047.00" waitingTime="880.00" timeLoss="25.96" traveltime="167.00">
        <ride waitingTime="880.00" vehicle="t_1" depart="992.00" arrival="1159.00" arrivalPos="85.48" duration="167.00" routeLength="1047.21" timeLoss="25.96"/>
    </personinfo>
    <personinfo id="17" depart="188.00" type="DEFAULT_PEDTYPE" speedFactor="1.16" duration="1204.00" waitingTime="1003.00" timeLoss="44.19" traveltime="201.00">
        <ride waitingTime="1003.00" vehicle="t_0" depart="1191.00" arrival="1392.00" arrivalPos="5.51" duration="201.00" routeLength="2461.85" timeLoss="44.19"/>
    </personinfo>
    <personinfo id="16" depart="157.00" type="DEFAULT_PEDTYPE" speedFactor="0.94" duration="1436.00" waitingTime="1250.00" timeLoss="28.32" traveltime="186.00">
        <ride waitingTime="1250.00" vehicle="t_0" depart="1407.00" arrival="1593.00" arrivalPos="1.37" duration="186.00" routeLength="2287.47" timeLoss="28.32"/>
    </personinfo>
    <personinfo id="5" depart="68.00" type="DEFAULT_PEDTYPE" speedFactor="0.89" duration="1656.00" waitingTime="1512.00" timeLoss="16.21" traveltime="144.00">
        <ride waitingTime="1512.00" vehicle="t_1" depart="1580.00" arrival="1724.00" arrivalPos="84.25" duration="144.00" routeLength="912.90" timeLoss="16.21"/>
    </personinfo>
    <personinfo id="2" depart="47.00" type="DEFAULT_PEDTYPE" speedFactor="1.03" duration="1878.00" waitingTime="1730.00" timeLoss="23.20" traveltime="148.00">
        <ride waitingTime="1730.00" vehicle="t_0" depart="1777.00" arrival="1925.00" arrivalPos="81.81" duration="148.00" routeLength="940.18" timeLoss="23.20"/>
    </personinfo>
    <personinfo id="24" depart="280.00" type="DEFAULT_PEDTYPE" speedFactor="1.13" duration="1801.00" waitingTime="1460.00" timeLoss="59.33" traveltime="341.00">
        <ride waitingTime="1460.00" vehicle="t_1" depart="1740.00" arrival="2081.00" arrivalPos="80.26" duration="341.00" routeLength="4530.48" timeLoss="59.33"/>
    </personinfo>
</tripinfos>
