<?xml version="1.0" encoding="UTF-8"?>

<!-- generated on 2025-10-11 01:12:35 by Eclipse SUMO GUI Version 1.24.0
<sumoConfiguration xmlns:xsi="http://www.w3.org/2001/XMLSchema-instance" xsi:noNamespaceSchemaLocation="http://sumo.dlr.de/xsd/sumoConfiguration.xsd">

    <input>
        <net-file value="D:\6Sumo\RLTesting\RLTrainingMap2\osm.net.xml"/>
        <route-files value="D:\6Sumo\RLTesting\RLTrainingMap2\map.rou.xml,D:\6Sumo\RLTesting\RLTrainingMap2\persontripsridecheck.rou.xml"/>
    </input>

    <output>
        <tripinfo-output value="D:\6Sumo\RLTesting\RLTrainingMap2\tripinfos.xml"/>
        <stop-output value="D:\6Sumo\RLTesting\RLTrainingMap2\stopinfos.xml"/>
        <statistic-output value="D:\6Sumo\RLTesting\RLTrainingMap2\stats.xml"/>
    </output>

    <report>
        <verbose value="true"/>
        <duration-log.statistics value="true"/>
        <no-step-log value="true"/>
    </report>

</sumoConfiguration>
-->

<tripinfos xmlns:xsi="http://www.w3.org/2001/XMLSchema-instance" xsi:noNamespaceSchemaLocation="http://sumo.dlr.de/xsd/tripinfo_file.xsd">
    <personinfo id="6" depart="6.00" type="DEFAULT_PEDTYPE" speedFactor="1.01" duration="304.00" waitingTime="159.00" timeLoss="24.75" traveltime="145.00">
        <ride waitingTime="159.00" vehicle="t_0" depart="165.00" arrival="310.00" arrivalPos="21.48" duration="145.00" routeLength="1386.30" timeLoss="24.75"/>
    </personinfo>
    <personinfo id="27" depart="27.00" type="DEFAULT_PEDTYPE" speedFactor="1.08" duration="460.00" waitingTime="96.00" timeLoss="72.10" traveltime="364.00">
        <ride waitingTime="96.00" vehicle="t_1" depart="123.00" arrival="487.00" arrivalPos="77.16" duration="364.00" routeLength="3968.13" timeLoss="72.10"/>
    </personinfo>
    <personinfo id="47" depart="47.00" type="DEFAULT_PEDTYPE" speedFactor="1.03" duration="651.00" waitingTime="502.00" timeLoss="24.33" traveltime="149.00">
        <ride waitingTime="502.00" vehicle="t_0" depart="549.00" arrival="698.00" arrivalPos="81.81" duration="149.00" routeLength="940.16" timeLoss="24.33"/>
    </personinfo>
    <personinfo id="57" depart="57.00" type="DEFAULT_PEDTYPE" speedFactor="0.83" duration="1010.00" waitingTime="730.00" timeLoss="54.47" traveltime="280.00">
        <ride waitingTime="730.00" vehicle="t_1" depart="787.00" arrival="1067.00" arrivalPos="49.83" duration="280.00" routeLength="3588.04" timeLoss="54.47"/>
    </personinfo>
    <personinfo id="58" depart="58.00" type="DEFAULT_PEDTYPE" speedFactor="1.05" duration="1050.00" waitingTime="861.00" timeLoss="37.81" traveltime="189.00">
        <ride waitingTime="861.00" vehicle="t_0" depart="919.00" arrival="1108.00" arrivalPos="9.72" duration="189.00" routeLength="2039.50" timeLoss="37.81"/>
    </personinfo>
    <personinfo id="68" depart="68.00" type="DEFAULT_PEDTYPE" speedFactor="0.89" duration="1176.00" waitingTime="1029.00" timeLoss="18.49" traveltime="147.00">
        <ride waitingTime="1029.00" vehicle="t_1" depart="1097.00" arrival="1244.00" arrivalPos="84.25" duration="147.00" routeLength="912.89" timeLoss="18.49"/>
    </personinfo>
    <personinfo id="78" depart="78.00" type="DEFAULT_PEDTYPE" speedFactor="0.94" duration="1405.00" waitingTime="1167.00" timeLoss="56.08" traveltime="238.00">
        <ride waitingTime="1167.00" vehicle="t_0" depart="1245.00" arrival="1483.00" arrivalPos="16.54" duration="238.00" routeLength="2399.75" timeLoss="56.08"/>
    </personinfo>
    <personinfo id="85" depart="85.00" type="DEFAULT_PEDTYPE" speedFactor="0.86" duration="1451.00" waitingTime="1263.00" timeLoss="29.10" traveltime="188.00">
        <ride waitingTime="1263.00" vehicle="t_1" depart="1348.00" arrival="1536.00" arrivalPos="6.76" duration="188.00" routeLength="2259.37" timeLoss="29.10"/>
    </personinfo>
    <personinfo id="94" depart="94.00" type="DEFAULT_PEDTYPE" speedFactor="1.03" duration="1770.00" waitingTime="1631.00" timeLoss="20.16" traveltime="139.00">
        <ride waitingTime="1631.00" vehicle="t_1" depart="1725.00" arrival="1864.00" arrivalPos="77.59" duration="139.00" routeLength="921.35" timeLoss="20.16"/>
    </personinfo>
    <personinfo id="87" depart="87.00" type="DEFAULT_PEDTYPE" speedFactor="1.09" duration="1784.00" waitingTime="1630.00" timeLoss="32.02" traveltime="154.00">
        <ride waitingTime="1630.00" vehicle="t_0" depart="1717.00" arrival="1871.00" arrivalPos="0.20" duration="154.00" routeLength="1392.05" timeLoss="32.02"/>
    </personinfo>
    <personinfo id="107" depart="107.00" type="DEFAULT_PEDTYPE" speedFactor="1.05" duration="2078.00" waitingTime="1890.00" timeLoss="29.94" traveltime="188.00">
        <ride waitingTime="1890.00" vehicle="t_1" depart="1997.00" arrival="2185.00" arrivalPos="6.66" duration="188.00" routeLength="1814.24" timeLoss="29.94"/>
    </personinfo>
    <personinfo id="112" depart="112.00" type="DEFAULT_PEDTYPE" speedFactor="1.12" duration="2079.00" waitingTime="1914.00" timeLoss="29.99" traveltime="165.00">
        <ride waitingTime="1914.00" vehicle="t_0" depart="2026.00" arrival="2191.00" arrivalPos="85.48" duration="165.00" routeLength="1047.22" timeLoss="29.99"/>
    </personinfo>
    <personinfo id="116" depart="116.00" type="DEFAULT_PEDTYPE" speedFactor="0.99" duration="2413.00" waitingTime="2173.00" timeLoss="56.83" traveltime="240.00">
        <ride waitingTime="2173.00" vehicle="t_0" depart="2289.00" arrival="2529.00" arrivalPos="26.94" duration="240.00" routeLength="2514.15" timeLoss="56.83"/>
    </personinfo>
    <personinfo id="127" depart="127.00" type="DEFAULT_PEDTYPE" speedFactor="0.93" duration="2511.00" waitingTime="2323.00" timeLoss="33.45" traveltime="188.00">
        <ride waitingTime="2323.00" vehicle="t_1" depart="2450.00" arrival="2638.00" arrivalPos="261.72" duration="188.00" routeLength="1471.62" timeLoss="33.45"/>
    </personinfo>
    <personinfo id="132" depart="132.00" type="DEFAULT_PEDTYPE" speedFactor="0.88" duration="2681.00" waitingTime="2541.00" timeLoss="17.31" traveltime="140.00">
        <ride waitingTime="2541.00" vehicle="t_0" depart="2673.00" arrival="2813.00" arrivalPos="1.37" duration="140.00" routeLength="1128.55" timeLoss="17.31"/>
    </personinfo>
    <personinfo id="145" depart="145.00" type="DEFAULT_PEDTYPE" speedFactor="0.94" duration="2849.00" waitingTime="2647.00" timeLoss="31.86" traveltime="202.00">
        <ride waitingTime="2647.00" vehicle="t_1" depart="2792.00" arrival="2994.00" arrivalPos="27.84" duration="202.00" routeLength="2012.33" timeLoss="31.86"/>
    </personinfo>
    <personinfo id="157" depart="157.00" type="DEFAULT_PEDTYPE" speedFactor="0.94" duration="2967.00" waitingTime="2782.00" timeLoss="27.14" traveltime="185.00">
        <ride waitingTime="2782.00" vehicle="t_0" depart="2939.00" arrival="3124.00" arrivalPos="1.37" duration="185.00" routeLength="2287.44" timeLoss="27.14"/>
    </personinfo>
    <personinfo id="188" depart="188.00" type="DEFAULT_PEDTYPE" speedFactor="1.16" duration="3204.00" waitingTime="3002.00" timeLoss="39.71" traveltime="202.00">
        <ride waitingTime="3002.00" vehicle="t_1" depart="3190.00" arrival="3392.00" arrivalPos="5.51" duration="202.00" routeLength="2461.84" timeLoss="39.71"/>
    </personinfo>
    <personinfo id="189" depart="189.00" type="DEFAULT_PEDTYPE" speedFactor="1.02" duration="3381.00" waitingTime="3176.00" timeLoss="38.87" traveltime="205.00">
        <ride waitingTime="3176.00" vehicle="t_0" depart="3365.00" arrival="3570.00" arrivalPos="0.20" duration="205.00" routeLength="2319.71" timeLoss="38.87"/>
    </personinfo>
    <personinfo id="193" depart="193.00" type="DEFAULT_PEDTYPE" speedFactor="1.01" duration="3543.00" waitingTime="3362.00" timeLoss="22.61" traveltime="181.00">
        <ride waitingTime="3362.00" vehicle="t_1" depart="3555.00" arrival="3736.00" arrivalPos="72.78" duration="181.00" routeLength="1485.85" timeLoss="22.61"/>
    </personinfo>
    <personinfo id="207" depart="207.00" type="DEFAULT_PEDTYPE" speedFactor="0.97" duration="3752.00" waitingTime="3600.00" timeLoss="27.85" traveltime="152.00">
        <ride waitingTime="3600.00" vehicle="t_0" depart="3807.00" arrival="3959.00" arrivalPos="81.57" duration="152.00" routeLength="1117.54" timeLoss="27.85"/>
    </personinfo>
    <personinfo id="210" depart="210.00" type="DEFAULT_PEDTYPE" speedFactor="0.89" duration="3914.00" waitingTime="3688.00" timeLoss="28.88" traveltime="226.00">
        <ride waitingTime="3688.00" vehicle="t_1" depart="3898.00" arrival="4124.00" arrivalPos="45.82" duration="226.00" routeLength="2371.74" timeLoss="28.88"/>
    </personinfo>
    <personinfo id="211" depart="211.00" type="DEFAULT_PEDTYPE" speedFactor="0.83" duration="3930.00" waitingTime="3774.00" timeLoss="31.24" traveltime="156.00">
        <ride waitingTime="3774.00" vehicle="t_0" depart="3985.00" arrival="4141.00" arrivalPos="38.26" duration="156.00" routeLength="1140.39" timeLoss="31.24"/>
    </personinfo>
    <personinfo id="279" depart="279.00" type="DEFAULT_PEDTYPE" speedFactor="0.87" duration="4279.00" waitingTime="4107.00" timeLoss="32.13" traveltime="172.00">
        <ride waitingTime="4107.00" vehicle="t_1" depart="4386.00" arrival="4558.00" arrivalPos="48.57" duration="172.00" routeLength="1389.36" timeLoss="32.13"/>
    </personinfo>
    <personinfo id="280" depart="280.00" type="DEFAULT_PEDTYPE" speedFactor="0.92" duration="4367.00" waitingTime="4039.00" timeLoss="59.60" traveltime="328.00">
        <ride waitingTime="4039.00" vehicle="t_0" depart="4319.00" arrival="4647.00" arrivalPos="80.26" duration="328.00" routeLength="4530.47" timeLoss="59.60"/>
    </personinfo>
    <personinfo id="282" depart="282.00" type="DEFAULT_PEDTYPE" speedFactor="0.95" duration="4607.00" waitingTime="4368.00" timeLoss="33.48" traveltime="239.00">
        <ride waitingTime="4368.00" vehicle="t_1" depart="4650.00" arrival="4889.00" arrivalPos="45.86" duration="239.00" routeLength="2612.83" timeLoss="33.48"/>
    </personinfo>
    <personinfo id="294" depart="294.00" type="DEFAULT_PEDTYPE" speedFactor="1.13" duration="4806.00" waitingTime="4568.00" timeLoss="55.00" traveltime="238.00">
        <ride waitingTime="4568.00" vehicle="t_0" depart="4862.00" arrival="5100.00" arrivalPos="57.88" duration="238.00" routeLength="2516.17" timeLoss="55.00"/>
    </personinfo>
    <personinfo id="295" depart="295.00" type="DEFAULT_PEDTYPE" speedFactor="0.93" duration="4859.00" waitingTime="4709.00" timeLoss="22.66" traveltime="150.00">
        <ride waitingTime="4709.00" vehicle="t_1" depart="5004.00" arrival="5154.00" arrivalPos="65.15" duration="150.00" routeLength="1124.82" timeLoss="22.66"/>
    </personinfo>
    <personinfo id="304" depart="304.00" type="DEFAULT_PEDTYPE" speedFactor="1.18" duration="5044.00" waitingTime="4838.00" timeLoss="32.56" traveltime="206.00">
        <ride waitingTime="4838.00" vehicle="t_0" depart="5142.00" arrival="5348.00" arrivalPos="150.32" duration="206.00" routeLength="2449.33" timeLoss="32.56"/>
    </personinfo>
    <personinfo id="339" depart="339.00" type="DEFAULT_PEDTYPE" speedFactor="1.15" duration="5392.00" waitingTime="5133.00" timeLoss="42.84" traveltime="259.00">
        <ride waitingTime="5133.00" vehicle="t_1" depart="5472.00" arrival="5731.00" arrivalPos="261.72" duration="259.00" routeLength="2679.34" timeLoss="42.84"/>
    </personinfo>
    <personinfo id="358" depart="358.00" type="DEFAULT_PEDTYPE" speedFactor="1.01" duration="5506.00" waitingTime="5220.00" timeLoss="54.27" traveltime="286.00">
        <ride waitingTime="5220.00" vehicle="t_0" depart="5578.00" arrival="5864.00" arrivalPos="29.43" duration="286.00" routeLength="3835.16" timeLoss="54.27"/>
    </personinfo>
    <personinfo id="364" depart="364.00" type="DEFAULT_PEDTYPE" speedFactor="1.17" duration="5870.00" waitingTime="5601.00" timeLoss="61.29" traveltime="269.00">
        <ride waitingTime="5601.00" vehicle="t_1" depart="5965.00" arrival="6234.00" arrivalPos="21.97" duration="269.00" routeLength="2802.19" timeLoss="61.29"/>
    </personinfo>
</tripinfos>
