<?xml version="1.0" encoding="UTF-8"?>

<!-- generated on 2026-03-15T14:03:09.490675+08:00 by Eclipse SUMO GUI 1.26.0
<sumoConfiguration xmlns:xsi="http://www.w3.org/2001/XMLSchema-instance" xsi:noNamespaceSchemaLocation="http://sumo.dlr.de/xsd/sumoConfiguration.xsd">

    <input>
        <net-file value="D:\6Sumo\RLTesting\SmallTestingMapGreedy\map.net.xml"/>
        <route-files value="D:\6Sumo\RLTesting\SmallTestingMapGreedy\map.rou.xml,D:\6Sumo\RLTesting\SmallTestingMapGreedy\requests.rou.xml"/>
    </input>

    <output>
        <tripinfo-output value="D:\6Sumo\RLTesting\SmallTestingMapGreedy\tripinfos.xml"/>
        <stop-output value="D:\6Sumo\RLTesting\SmallTestingMapGreedy\stopinfos.xml"/>
        <statistic-output value="D:\6Sumo\RLTesting\SmallTestingMapGreedy\stats.xml"/>
    </output>

    <report>
        <verbose value="true"/>
        <duration-log.statistics value="true"/>
        <no-step-log value="true"/>
    </report>

    <taxi_device>
        <device.taxi.dispatch-algorithm value="greedyShared"/>
    </taxi_device>

</sumoConfiguration>
-->

<tripinfos xmlns:xsi="http://www.w3.org/2001/XMLSchema-instance" xsi:noNamespaceSchemaLocation="http://sumo.dlr.de/xsd/tripinfo_file.xsd">
    <personinfo id="0" depart="0.00" type="DEFAULT_PEDTYPE" speedFactor="1.01" duration="240.00" waitingTime="151.00" timeLoss="6.69" traveltime="89.00">
        <ride waitingTime="151.00" vehicle="t_1" depart="151.00" arrival="240.00" arrivalPos="0.20" duration="89.00" routeLength="213.44" timeLoss="6.69"/>
    </personinfo>
    <personinfo id="1" depart="100.00" type="DEFAULT_PEDTYPE" speedFactor="1.08" duration="163.00" waitingTime="48.00" timeLoss="10.16" traveltime="115.00">
        <ride waitingTime="48.00" vehicle="t_0" depart="148.00" arrival="263.00" arrivalPos="83.20" duration="115.00" routeLength="551.75" timeLoss="10.16"/>
    </personinfo>
    <personinfo id="2" depart="200.00" type="DEFAULT_PEDTYPE" speedFactor="1.03" duration="191.00" waitingTime="76.00" timeLoss="23.09" traveltime="115.00">
        <ride waitingTime="76.00" vehicle="t_1" depart="276.00" arrival="391.00" arrivalPos="83.20" duration="115.00" routeLength="291.67" timeLoss="23.09"/>
    </personinfo>
    <personinfo id="3" depart="300.00" type="DEFAULT_PEDTYPE" speedFactor="0.83" duration="271.00" waitingTime="120.00" timeLoss="49.32" traveltime="151.00">
        <ride waitingTime="120.00" vehicle="t_0" depart="420.00" arrival="571.00" arrivalPos="78.65" duration="151.00" routeLength="451.16" timeLoss="49.32"/>
    </personinfo>
    <personinfo id="4" depart="400.00" type="DEFAULT_PEDTYPE" speedFactor="1.05" duration="179.00" waitingTime="46.00" timeLoss="42.42" traveltime="133.00">
        <ride waitingTime="46.00" vehicle="t_1" depart="446.00" arrival="579.00" arrivalPos="79.20" duration="133.00" routeLength="294.31" timeLoss="42.42"/>
    </personinfo>
    <personinfo id="6" depart="600.00" type="DEFAULT_PEDTYPE" speedFactor="0.94" duration="139.00" waitingTime="44.00" timeLoss="6.98" traveltime="95.00">
        <ride waitingTime="44.00" vehicle="t_0" depart="644.00" arrival="739.00" arrivalPos="78.65" duration="95.00" routeLength="306.33" timeLoss="6.98"/>
    </personinfo>
    <personinfo id="5" depart="500.00" type="DEFAULT_PEDTYPE" speedFactor="0.89" duration="286.00" waitingTime="190.00" timeLoss="6.05" traveltime="96.00">
        <ride waitingTime="190.00" vehicle="t_1" depart="690.00" arrival="786.00" arrivalPos="83.20" duration="96.00" routeLength="292.37" timeLoss="6.05"/>
    </personinfo>
    <personinfo id="7" depart="700.00" type="DEFAULT_PEDTYPE" speedFactor="0.86" duration="274.00" waitingTime="172.00" timeLoss="12.03" traveltime="102.00">
        <ride waitingTime="172.00" vehicle="t_0" depart="872.00" arrival="974.00" arrivalPos="0.20" duration="102.00" routeLength="354.74" timeLoss="12.03"/>
    </personinfo>
    <personinfo id="8" depart="800.00" type="DEFAULT_PEDTYPE" speedFactor="1.09" duration="199.00" waitingTime="114.00" timeLoss="5.41" traveltime="85.00">
        <ride waitingTime="114.00" vehicle="t_1" depart="914.00" arrival="999.00" arrivalPos="0.20" duration="85.00" routeLength="199.96" timeLoss="5.41"/>
    </personinfo>
    <personinfo id="10" depart="1000.00" type="DEFAULT_PEDTYPE" speedFactor="1.05" duration="153.00" waitingTime="42.00" timeLoss="24.51" traveltime="111.00">
        <ride waitingTime="42.00" vehicle="t_0" depart="1042.00" arrival="1153.00" arrivalPos="78.65" duration="111.00" routeLength="273.59" timeLoss="24.51"/>
    </personinfo>
    <personinfo id="9" depart="900.00" type="DEFAULT_PEDTYPE" speedFactor="1.03" duration="256.00" waitingTime="141.00" timeLoss="26.71" traveltime="115.00">
        <ride waitingTime="141.00" vehicle="t_1" depart="1041.00" arrival="1156.00" arrivalPos="78.65" duration="115.00" routeLength="264.09" timeLoss="26.71"/>
    </personinfo>
    <personinfo id="11" depart="1100.00" type="DEFAULT_PEDTYPE" speedFactor="1.12" duration="256.00" waitingTime="179.00" timeLoss="3.33" traveltime="77.00">
        <ride waitingTime="179.00" vehicle="t_1" depart="1279.00" arrival="1356.00" arrivalPos="78.65" duration="77.00" routeLength="106.39" timeLoss="3.33"/>
    </personinfo>
    <personinfo id="12" depart="1200.00" type="DEFAULT_PEDTYPE" speedFactor="0.99" duration="209.00" waitingTime="68.00" timeLoss="41.74" traveltime="141.00">
        <ride waitingTime="68.00" vehicle="t_0" depart="1268.00" arrival="1409.00" arrivalPos="83.20" duration="141.00" routeLength="451.74" timeLoss="41.74"/>
    </personinfo>
    <personinfo id="13" depart="1300.00" type="DEFAULT_PEDTYPE" speedFactor="0.93" duration="259.00" waitingTime="147.00" timeLoss="32.75" traveltime="112.00">
        <ride waitingTime="147.00" vehicle="t_1" depart="1447.00" arrival="1559.00" arrivalPos="83.20" duration="112.00" routeLength="166.51" timeLoss="32.75"/>
    </personinfo>
    <personinfo id="14" depart="1400.00" type="DEFAULT_PEDTYPE" speedFactor="0.88" duration="170.00" waitingTime="50.00" timeLoss="11.50" traveltime="120.00">
        <ride waitingTime="50.00" vehicle="t_0" depart="1450.00" arrival="1570.00" arrivalPos="78.65" duration="120.00" routeLength="586.58" timeLoss="11.50"/>
    </personinfo>
    <personinfo id="15" depart="1500.00" type="DEFAULT_PEDTYPE" speedFactor="0.94" duration="200.00" waitingTime="106.00" timeLoss="6.59" traveltime="94.00">
        <ride waitingTime="106.00" vehicle="t_1" depart="1606.00" arrival="1700.00" arrivalPos="83.20" duration="94.00" routeLength="257.05" timeLoss="6.59"/>
    </personinfo>
    <personinfo id="16" depart="1600.00" type="DEFAULT_PEDTYPE" speedFactor="0.94" duration="258.00" waitingTime="42.00" timeLoss="100.04" traveltime="216.00">
        <ride waitingTime="42.00" vehicle="t_0" depart="1642.00" arrival="1858.00" arrivalPos="83.20" duration="216.00" routeLength="648.29" timeLoss="100.04"/>
    </personinfo>
    <personinfo id="17" depart="1700.00" type="DEFAULT_PEDTYPE" speedFactor="1.16" duration="248.00" waitingTime="160.00" timeLoss="4.10" traveltime="88.00">
        <ride waitingTime="160.00" vehicle="t_1" depart="1860.00" arrival="1948.00" arrivalPos="0.20" duration="88.00" routeLength="204.23" timeLoss="4.10"/>
    </personinfo>
    <personinfo id="18" depart="1800.00" type="DEFAULT_PEDTYPE" speedFactor="1.02" duration="299.00" waitingTime="129.00" timeLoss="63.37" traveltime="170.00">
        <ride waitingTime="129.00" vehicle="t_0" depart="1929.00" arrival="2099.00" arrivalPos="79.20" duration="170.00" routeLength="528.23" timeLoss="63.37"/>
    </personinfo>
    <personinfo id="19" depart="1900.00" type="DEFAULT_PEDTYPE" speedFactor="1.01" duration="336.00" waitingTime="144.00" timeLoss="73.05" traveltime="192.00">
        <ride waitingTime="144.00" vehicle="t_1" depart="2044.00" arrival="2236.00" arrivalPos="83.20" duration="192.00" routeLength="664.60" timeLoss="73.05"/>
    </personinfo>
    <personinfo id="20" depart="2000.00" type="DEFAULT_PEDTYPE" speedFactor="0.97" duration="321.00" waitingTime="175.00" timeLoss="54.21" traveltime="146.00">
        <ride waitingTime="175.00" vehicle="t_0" depart="2175.00" arrival="2321.00" arrivalPos="79.20" duration="146.00" routeLength="345.35" timeLoss="54.21"/>
    </personinfo>
    <personinfo id="21" depart="2100.00" type="DEFAULT_PEDTYPE" speedFactor="0.89" duration="413.00" waitingTime="239.00" timeLoss="65.45" traveltime="174.00">
        <ride waitingTime="239.00" vehicle="t_1" depart="2339.00" arrival="2513.00" arrivalPos="83.20" duration="174.00" routeLength="560.18" timeLoss="65.45"/>
    </personinfo>
    <personinfo id="22" depart="2200.00" type="DEFAULT_PEDTYPE" speedFactor="0.83" duration="402.00" waitingTime="239.00" timeLoss="51.34" traveltime="163.00">
        <ride waitingTime="239.00" vehicle="t_0" depart="2439.00" arrival="2602.00" arrivalPos="83.20" duration="163.00" routeLength="657.80" timeLoss="51.34"/>
    </personinfo>
    <personinfo id="23" depart="2300.00" type="DEFAULT_PEDTYPE" speedFactor="0.87" duration="359.00" waitingTime="241.00" timeLoss="24.88" traveltime="118.00">
        <ride waitingTime="241.00" vehicle="t_1" depart="2541.00" arrival="2659.00" arrivalPos="0.20" duration="118.00" routeLength="292.48" timeLoss="24.88"/>
    </personinfo>
    <personinfo id="24" depart="2400.00" type="DEFAULT_PEDTYPE" speedFactor="0.92" duration="336.00" waitingTime="192.00" timeLoss="5.21" traveltime="144.00">
        <ride waitingTime="192.00" vehicle="t_1" depart="2592.00" arrival="2736.00" arrivalPos="78.65" duration="144.00" routeLength="94.96" timeLoss="5.21"/>
    </personinfo>
    <personinfo id="25" depart="2500.00" type="DEFAULT_PEDTYPE" speedFactor="0.95" duration="365.00" waitingTime="235.00" timeLoss="49.37" traveltime="130.00">
        <ride waitingTime="235.00" vehicle="t_0" depart="2735.00" arrival="2865.00" arrivalPos="78.65" duration="130.00" routeLength="180.11" timeLoss="49.37"/>
    </personinfo>
    <personinfo id="26" depart="2600.00" type="DEFAULT_PEDTYPE" speedFactor="1.13" duration="354.00" waitingTime="215.00" timeLoss="34.20" traveltime="139.00">
        <ride waitingTime="215.00" vehicle="t_1" depart="2815.00" arrival="2954.00" arrivalPos="79.20" duration="139.00" routeLength="480.18" timeLoss="34.20"/>
    </personinfo>
    <personinfo id="27" depart="2700.00" type="DEFAULT_PEDTYPE" speedFactor="0.93" duration="399.00" waitingTime="277.00" timeLoss="28.76" traveltime="122.00">
        <ride waitingTime="277.00" vehicle="t_0" depart="2977.00" arrival="3099.00" arrivalPos="83.20" duration="122.00" routeLength="367.93" timeLoss="28.76"/>
    </personinfo>
    <personinfo id="28" depart="2800.00" type="DEFAULT_PEDTYPE" speedFactor="1.18" duration="393.00" waitingTime="310.00" timeLoss="3.48" traveltime="83.00">
        <ride waitingTime="310.00" vehicle="t_1" depart="3110.00" arrival="3193.00" arrivalPos="0.20" duration="83.00" routeLength="178.54" timeLoss="3.48"/>
    </personinfo>
    <personinfo id="29" depart="2900.00" type="DEFAULT_PEDTYPE" speedFactor="1.15" duration="445.00" waitingTime="298.00" timeLoss="41.09" traveltime="147.00">
        <ride waitingTime="298.00" vehicle="t_0" depart="3198.00" arrival="3345.00" arrivalPos="83.20" duration="147.00" routeLength="587.48" timeLoss="41.09"/>
    </personinfo>
    <personinfo id="30" depart="3000.00" type="DEFAULT_PEDTYPE" speedFactor="1.01" duration="367.00" waitingTime="248.00" timeLoss="34.38" traveltime="119.00">
        <ride waitingTime="248.00" vehicle="t_1" depart="3248.00" arrival="3367.00" arrivalPos="0.20" duration="119.00" routeLength="203.72" timeLoss="34.38"/>
    </personinfo>
    <personinfo id="31" depart="3100.00" type="DEFAULT_PEDTYPE" speedFactor="1.17" duration="382.00" waitingTime="294.00" timeLoss="6.18" traveltime="88.00">
        <ride waitingTime="294.00" vehicle="t_0" depart="3394.00" arrival="3482.00" arrivalPos="0.20" duration="88.00" routeLength="187.88" timeLoss="6.18"/>
    </personinfo>
    <personinfo id="32" depart="3200.00" type="DEFAULT_PEDTYPE" speedFactor="0.99" duration="386.00" waitingTime="247.00" timeLoss="50.96" traveltime="139.00">
        <ride waitingTime="247.00" vehicle="t_1" depart="3447.00" arrival="3586.00" arrivalPos="83.20" duration="139.00" routeLength="265.88" timeLoss="50.96"/>
    </personinfo>
    <personinfo id="33" depart="3300.00" type="DEFAULT_PEDTYPE" speedFactor="1.02" duration="382.00" waitingTime="280.00" timeLoss="16.73" traveltime="102.00">
        <ride waitingTime="280.00" vehicle="t_0" depart="3580.00" arrival="3682.00" arrivalPos="78.65" duration="102.00" routeLength="276.25" timeLoss="16.73"/>
    </personinfo>
    <personinfo id="34" depart="3400.00" type="DEFAULT_PEDTYPE" speedFactor="0.97" duration="395.00" waitingTime="298.00" timeLoss="6.70" traveltime="97.00">
        <ride waitingTime="298.00" vehicle="t_1" depart="3698.00" arrival="3795.00" arrivalPos="78.65" duration="97.00" routeLength="273.14" timeLoss="6.70"/>
    </personinfo>
    <personinfo id="35" depart="3500.00" type="DEFAULT_PEDTYPE" speedFactor="1.18" duration="447.00" waitingTime="236.00" timeLoss="106.38" traveltime="211.00">
        <ride waitingTime="236.00" vehicle="t_0" depart="3736.00" arrival="3947.00" arrivalPos="79.20" duration="211.00" routeLength="470.75" timeLoss="106.38"/>
    </personinfo>
    <personinfo id="36" depart="3600.00" type="DEFAULT_PEDTYPE" speedFactor="1.10" duration="383.00" waitingTime="285.00" timeLoss="5.19" traveltime="98.00">
        <ride waitingTime="285.00" vehicle="t_1" depart="3885.00" arrival="3983.00" arrivalPos="0.20" duration="98.00" routeLength="371.06" timeLoss="5.19"/>
    </personinfo>
    <personinfo id="37" depart="3700.00" type="DEFAULT_PEDTYPE" speedFactor="0.90" duration="472.00" waitingTime="324.00" timeLoss="56.35" traveltime="148.00">
        <ride waitingTime="324.00" vehicle="t_0" depart="4024.00" arrival="4172.00" arrivalPos="79.20" duration="148.00" routeLength="318.31" timeLoss="56.35"/>
    </personinfo>
    <personinfo id="38" depart="3800.00" type="DEFAULT_PEDTYPE" speedFactor="1.03" duration="416.00" waitingTime="243.00" timeLoss="55.93" traveltime="173.00">
        <ride waitingTime="243.00" vehicle="t_1" depart="4043.00" arrival="4216.00" arrivalPos="79.20" duration="173.00" routeLength="642.85" timeLoss="55.93"/>
    </personinfo>
    <personinfo id="41" depart="4100.00" type="DEFAULT_PEDTYPE" speedFactor="1.04" duration="286.00" waitingTime="213.00" timeLoss="2.27" traveltime="73.00">
        <ride waitingTime="213.00" vehicle="t_1" depart="4313.00" arrival="4386.00" arrivalPos="78.65" duration="73.00" routeLength="83.50" timeLoss="2.27"/>
    </personinfo>
    <personinfo id="39" depart="3900.00" type="DEFAULT_PEDTYPE" speedFactor="0.96" duration="509.00" waitingTime="383.00" timeLoss="31.13" traveltime="126.00">
        <ride waitingTime="383.00" vehicle="t_0" depart="4283.00" arrival="4409.00" arrivalPos="0.20" duration="126.00" routeLength="382.58" timeLoss="31.13"/>
    </personinfo>
    <personinfo id="40" depart="4000.00" type="DEFAULT_PEDTYPE" speedFactor="1.09" duration="464.00" waitingTime="282.00" timeLoss="10.27" traveltime="182.00">
        <ride waitingTime="282.00" vehicle="t_1" depart="4282.00" arrival="4464.00" arrivalPos="83.20" duration="182.00" routeLength="458.18" timeLoss="10.27"/>
    </personinfo>
    <personinfo id="42" depart="4200.00" type="DEFAULT_PEDTYPE" speedFactor="1.04" duration="354.00" waitingTime="271.00" timeLoss="3.58" traveltime="83.00">
        <ride waitingTime="271.00" vehicle="t_0" depart="4471.00" arrival="4554.00" arrivalPos="78.65" duration="83.00" routeLength="165.91" timeLoss="3.58"/>
    </personinfo>
    <personinfo id="43" depart="4300.00" type="DEFAULT_PEDTYPE" speedFactor="1.09" duration="348.00" waitingTime="253.00" timeLoss="6.29" traveltime="95.00">
        <ride waitingTime="253.00" vehicle="t_1" depart="4553.00" arrival="4648.00" arrivalPos="83.20" duration="95.00" routeLength="254.40" timeLoss="6.29"/>
    </personinfo>
    <personinfo id="44" depart="4400.00" type="DEFAULT_PEDTYPE" speedFactor="1.00" duration="354.00" waitingTime="195.00" timeLoss="62.40" traveltime="159.00">
        <ride waitingTime="195.00" vehicle="t_0" depart="4595.00" arrival="4754.00" arrivalPos="83.20" duration="159.00" routeLength="392.44" timeLoss="62.40"/>
    </personinfo>
    <personinfo id="45" depart="4500.00" type="DEFAULT_PEDTYPE" speedFactor="0.90" duration="318.00" waitingTime="220.00" timeLoss="5.94" traveltime="98.00">
        <ride waitingTime="220.00" vehicle="t_1" depart="4720.00" arrival="4818.00" arrivalPos="79.20" duration="98.00" routeLength="299.87" timeLoss="5.94"/>
    </personinfo>
    <personinfo id="46" depart="4600.00" type="DEFAULT_PEDTYPE" speedFactor="0.88" duration="401.00" waitingTime="267.00" timeLoss="90.78" traveltime="134.00">
        <ride waitingTime="267.00" vehicle="t_0" depart="4867.00" arrival="5001.00" arrivalPos="4.99" duration="134.00" routeLength="512.71" timeLoss="90.78"/>
    </personinfo>
    <personinfo id="47" depart="4700.00" type="DEFAULT_PEDTYPE" speedFactor="0.85" duration="365.00" waitingTime="275.00" timeLoss="3.54" traveltime="90.00">
        <ride waitingTime="275.00" vehicle="t_1" depart="4975.00" arrival="5065.00" arrivalPos="83.20" duration="90.00" routeLength="282.22" timeLoss="3.54"/>
    </personinfo>
    <personinfo id="48" depart="4800.00" type="DEFAULT_PEDTYPE" speedFactor="0.85" duration="376.00" waitingTime="202.00" timeLoss="11.01" traveltime="174.00">
        <ride waitingTime="202.00" vehicle="t_0" depart="5002.00" arrival="5176.00" arrivalPos="79.20" duration="174.00" routeLength="386.92" timeLoss="11.01"/>
    </personinfo>
    <personinfo id="49" depart="4900.00" type="DEFAULT_PEDTYPE" speedFactor="1.17" duration="395.00" waitingTime="240.00" timeLoss="60.03" traveltime="155.00">
        <ride waitingTime="240.00" vehicle="t_1" depart="5140.00" arrival="5295.00" arrivalPos="78.65" duration="155.00" routeLength="359.07" timeLoss="60.03"/>
    </personinfo>
</tripinfos>
