<?xml version="1.0" encoding="UTF-8"?>

<!-- generated on 2026-03-21T16:06:10.991561+08:00 by Eclipse SUMO GUI 1.26.0
<sumoConfiguration xmlns:xsi="http://www.w3.org/2001/XMLSchema-instance" xsi:noNamespaceSchemaLocation="http://sumo.dlr.de/xsd/sumoConfiguration.xsd">

    <input>
        <net-file value="D:\FYP\FYP-DRT\SmallTestingMapGreedy\map.net.xml"/>
        <route-files value="D:\FYP\FYP-DRT\SmallTestingMapGreedy\map.rou.xml,D:\FYP\FYP-DRT\SmallTestingMapGreedy\persontrips_scale.rou.xml"/>
    </input>

    <output>
        <tripinfo-output value="D:\FYP\FYP-DRT\SmallTestingMapGreedy\tripinfos.xml"/>
        <stop-output value="D:\FYP\FYP-DRT\SmallTestingMapGreedy\stopinfos.xml"/>
        <statistic-output value="D:\FYP\FYP-DRT\SmallTestingMapGreedy\stats.xml"/>
    </output>

    <report>
        <verbose value="true"/>
        <duration-log.statistics value="true"/>
        <no-step-log value="true"/>
    </report>

    <taxi_device>
        <device.taxi.dispatch-algorithm value="greedyShared"/>
    </taxi_device>

</sumoConfiguration>
-->

<tripinfos xmlns:xsi="http://www.w3.org/2001/XMLSchema-instance" xsi:noNamespaceSchemaLocation="http://sumo.dlr.de/xsd/tripinfo_file.xsd">
    <personinfo id="0" depart="0.00" type="DEFAULT_PEDTYPE" speedFactor="1.01" duration="243.00" waitingTime="154.00" timeLoss="6.69" traveltime="89.00">
        <ride waitingTime="154.00" vehicle="t_1" depart="154.00" arrival="243.00" arrivalPos="0.20" duration="89.00" routeLength="213.44" timeLoss="6.69"/>
    </personinfo>
    <personinfo id="1" depart="25.00" type="DEFAULT_PEDTYPE" speedFactor="1.08" duration="238.00" waitingTime="82.00" timeLoss="50.04" traveltime="156.00">
        <ride waitingTime="82.00" vehicle="t_0" depart="107.00" arrival="263.00" arrivalPos="83.20" duration="156.00" routeLength="551.75" timeLoss="50.04"/>
    </personinfo>
    <personinfo id="2" depart="50.00" type="DEFAULT_PEDTYPE" speedFactor="1.03" duration="360.00" waitingTime="287.00" timeLoss="49.26" traveltime="73.00">
        <ride waitingTime="287.00" vehicle="t_1" depart="337.00" arrival="410.00" arrivalPos="4.99" duration="73.00" routeLength="213.47" timeLoss="49.26"/>
    </personinfo>
    <personinfo id="3" depart="75.00" type="DEFAULT_PEDTYPE" speedFactor="0.83" duration="425.00" waitingTime="345.00" timeLoss="47.43" traveltime="80.00">
        <ride waitingTime="345.00" vehicle="t_0" depart="420.00" arrival="500.00" arrivalPos="4.98" duration="80.00" routeLength="377.49" timeLoss="47.43"/>
    </personinfo>
    <personinfo id="9" depart="225.00" type="DEFAULT_PEDTYPE" speedFactor="1.03" duration="391.00" waitingTime="186.00" timeLoss="50.24" traveltime="205.00">
        <ride waitingTime="186.00" vehicle="t_1" depart="411.00" arrival="616.00" arrivalPos="78.65" duration="205.00" routeLength="264.08" timeLoss="50.24"/>
    </personinfo>
    <personinfo id="5" depart="125.00" type="DEFAULT_PEDTYPE" speedFactor="0.89" duration="537.00" waitingTime="376.00" timeLoss="7.92" traveltime="161.00">
        <ride waitingTime="376.00" vehicle="t_0" depart="501.00" arrival="662.00" arrivalPos="83.20" duration="161.00" routeLength="289.67" timeLoss="7.92"/>
    </personinfo>
    <personinfo id="4" depart="100.00" type="DEFAULT_PEDTYPE" speedFactor="1.05" duration="678.00" waitingTime="575.00" timeLoss="6.92" traveltime="103.00">
        <ride waitingTime="575.00" vehicle="t_1" depart="675.00" arrival="778.00" arrivalPos="79.20" duration="103.00" routeLength="294.34" timeLoss="6.92"/>
    </personinfo>
    <personinfo id="6" depart="150.00" type="DEFAULT_PEDTYPE" speedFactor="0.94" duration="676.00" waitingTime="629.00" timeLoss="25.67" traveltime="47.00">
        <ride waitingTime="629.00" vehicle="t_0" depart="779.00" arrival="826.00" arrivalPos="5.00" duration="47.00" routeLength="232.66" timeLoss="25.67"/>
    </personinfo>
    <personinfo id="7" depart="175.00" type="DEFAULT_PEDTYPE" speedFactor="0.86" duration="713.00" waitingTime="512.00" timeLoss="39.77" traveltime="201.00">
        <ride waitingTime="512.00" vehicle="t_1" depart="687.00" arrival="888.00" arrivalPos="0.20" duration="201.00" routeLength="354.74" timeLoss="39.77"/>
    </personinfo>
    <personinfo id="8" depart="200.00" type="DEFAULT_PEDTYPE" speedFactor="1.09" duration="804.00" waitingTime="713.00" timeLoss="7.50" traveltime="91.00">
        <ride waitingTime="713.00" vehicle="t_1" depart="913.00" arrival="1004.00" arrivalPos="0.20" duration="91.00" routeLength="199.96" timeLoss="7.50"/>
    </personinfo>
    <personinfo id="24" depart="600.00" type="DEFAULT_PEDTYPE" speedFactor="0.92" duration="481.00" waitingTime="337.00" timeLoss="5.84" traveltime="144.00">
        <ride waitingTime="337.00" vehicle="t_1" depart="937.00" arrival="1081.00" arrivalPos="78.65" duration="144.00" routeLength="94.96" timeLoss="5.84"/>
    </personinfo>
    <personinfo id="16" depart="400.00" type="DEFAULT_PEDTYPE" speedFactor="0.94" duration="741.00" waitingTime="427.00" timeLoss="131.84" traveltime="314.00">
        <ride waitingTime="427.00" vehicle="t_0" depart="827.00" arrival="1141.00" arrivalPos="83.20" duration="314.00" routeLength="648.27" timeLoss="131.84"/>
    </personinfo>
    <personinfo id="10" depart="250.00" type="DEFAULT_PEDTYPE" speedFactor="1.05" duration="1022.00" waitingTime="955.00" timeLoss="44.00" traveltime="67.00">
        <ride waitingTime="955.00" vehicle="t_1" depart="1205.00" arrival="1272.00" arrivalPos="5.00" duration="67.00" routeLength="200.01" timeLoss="44.00"/>
    </personinfo>
    <personinfo id="11" depart="275.00" type="DEFAULT_PEDTYPE" speedFactor="1.12" duration="1014.00" waitingTime="1004.00" timeLoss="2.44" traveltime="10.00">
        <ride waitingTime="1004.00" vehicle="t_0" depart="1279.00" arrival="1289.00" arrivalPos="4.99" duration="10.00" routeLength="32.81" timeLoss="2.44"/>
    </personinfo>
    <personinfo id="27" depart="675.00" type="DEFAULT_PEDTYPE" speedFactor="0.93" duration="804.00" waitingTime="598.00" timeLoss="47.58" traveltime="206.00">
        <ride waitingTime="598.00" vehicle="t_1" depart="1273.00" arrival="1479.00" arrivalPos="83.20" duration="206.00" routeLength="367.95" timeLoss="47.58"/>
    </personinfo>
    <personinfo id="32" depart="800.00" type="DEFAULT_PEDTYPE" speedFactor="0.99" duration="715.00" waitingTime="490.00" timeLoss="73.55" traveltime="225.00">
        <ride waitingTime="490.00" vehicle="t_0" depart="1290.00" arrival="1515.00" arrivalPos="83.20" duration="225.00" routeLength="265.91" timeLoss="73.55"/>
    </personinfo>
    <personinfo id="12" depart="300.00" type="DEFAULT_PEDTYPE" speedFactor="0.99" duration="1384.00" waitingTime="1247.00" timeLoss="30.43" traveltime="137.00">
        <ride waitingTime="1247.00" vehicle="t_1" depart="1547.00" arrival="1684.00" arrivalPos="83.20" duration="137.00" routeLength="451.73" timeLoss="30.43"/>
    </personinfo>
    <personinfo id="13" depart="325.00" type="DEFAULT_PEDTYPE" speedFactor="0.93" duration="1413.00" waitingTime="1302.00" timeLoss="32.82" traveltime="111.00">
        <ride waitingTime="1302.00" vehicle="t_0" depart="1627.00" arrival="1738.00" arrivalPos="83.20" duration="111.00" routeLength="166.43" timeLoss="32.82"/>
    </personinfo>
    <personinfo id="43" depart="1075.00" type="DEFAULT_PEDTYPE" speedFactor="1.09" duration="739.00" waitingTime="552.00" timeLoss="35.41" traveltime="187.00">
        <ride waitingTime="552.00" vehicle="t_0" depart="1627.00" arrival="1814.00" arrivalPos="83.20" duration="187.00" routeLength="254.30" timeLoss="35.41"/>
    </personinfo>
    <personinfo id="18" depart="450.00" type="DEFAULT_PEDTYPE" speedFactor="1.02" duration="1377.00" waitingTime="1152.00" timeLoss="50.53" traveltime="225.00">
        <ride waitingTime="1152.00" vehicle="t_1" depart="1602.00" arrival="1827.00" arrivalPos="79.20" duration="225.00" routeLength="528.20" timeLoss="50.53"/>
    </personinfo>
    <personinfo id="15" depart="375.00" type="DEFAULT_PEDTYPE" speedFactor="0.94" duration="1683.00" waitingTime="1566.00" timeLoss="24.33" traveltime="117.00">
        <ride waitingTime="1566.00" vehicle="t_0" depart="1941.00" arrival="2058.00" arrivalPos="83.20" duration="117.00" routeLength="251.89" timeLoss="24.33"/>
    </personinfo>
    <personinfo id="14" depart="350.00" type="DEFAULT_PEDTYPE" speedFactor="0.88" duration="1766.00" waitingTime="1568.00" timeLoss="83.72" traveltime="198.00">
        <ride waitingTime="1568.00" vehicle="t_1" depart="1918.00" arrival="2116.00" arrivalPos="78.65" duration="198.00" routeLength="583.87" timeLoss="83.72"/>
    </personinfo>
    <personinfo id="21" depart="525.00" type="DEFAULT_PEDTYPE" speedFactor="0.89" duration="1635.00" waitingTime="1430.00" timeLoss="28.54" traveltime="205.00">
        <ride waitingTime="1430.00" vehicle="t_0" depart="1955.00" arrival="2160.00" arrivalPos="83.20" duration="205.00" routeLength="572.64" timeLoss="28.54"/>
    </personinfo>
    <personinfo id="25" depart="625.00" type="DEFAULT_PEDTYPE" speedFactor="0.95" duration="1609.00" waitingTime="1416.00" timeLoss="47.19" traveltime="193.00">
        <ride waitingTime="1416.00" vehicle="t_1" depart="2041.00" arrival="2234.00" arrivalPos="78.65" duration="193.00" routeLength="178.23" timeLoss="47.19"/>
    </personinfo>
    <personinfo id="28" depart="700.00" type="DEFAULT_PEDTYPE" speedFactor="1.18" duration="1606.00" waitingTime="1521.00" timeLoss="5.57" traveltime="85.00">
        <ride waitingTime="1521.00" vehicle="t_0" depart="2221.00" arrival="2306.00" arrivalPos="0.20" duration="85.00" routeLength="178.62" timeLoss="5.57"/>
    </personinfo>
    <personinfo id="17" depart="425.00" type="DEFAULT_PEDTYPE" speedFactor="1.16" duration="1952.00" waitingTime="1796.00" timeLoss="7.79" traveltime="156.00">
        <ride waitingTime="1796.00" vehicle="t_0" depart="2221.00" arrival="2377.00" arrivalPos="0.20" duration="156.00" routeLength="201.58" timeLoss="7.79"/>
    </personinfo>
    <personinfo id="19" depart="475.00" type="DEFAULT_PEDTYPE" speedFactor="1.01" duration="2040.00" waitingTime="1873.00" timeLoss="46.78" traveltime="167.00">
        <ride waitingTime="1873.00" vehicle="t_1" depart="2348.00" arrival="2515.00" arrivalPos="83.20" duration="167.00" routeLength="659.86" timeLoss="46.78"/>
    </personinfo>
    <personinfo id="20" depart="500.00" type="DEFAULT_PEDTYPE" speedFactor="0.97" duration="2025.00" waitingTime="1947.00" timeLoss="51.66" traveltime="78.00">
        <ride waitingTime="1947.00" vehicle="t_0" depart="2447.00" arrival="2525.00" arrivalPos="4.99" duration="78.00" routeLength="271.08" timeLoss="51.66"/>
    </personinfo>
    <personinfo id="22" depart="550.00" type="DEFAULT_PEDTYPE" speedFactor="0.83" duration="2059.00" waitingTime="1833.00" timeLoss="45.14" traveltime="226.00">
        <ride waitingTime="1833.00" vehicle="t_1" depart="2383.00" arrival="2609.00" arrivalPos="83.20" duration="226.00" routeLength="657.78" timeLoss="45.14"/>
    </personinfo>
    <personinfo id="23" depart="575.00" type="DEFAULT_PEDTYPE" speedFactor="0.87" duration="2116.00" waitingTime="1951.00" timeLoss="9.74" traveltime="165.00">
        <ride waitingTime="1951.00" vehicle="t_0" depart="2526.00" arrival="2691.00" arrivalPos="0.20" duration="165.00" routeLength="292.48" timeLoss="9.74"/>
    </personinfo>
    <personinfo id="26" depart="650.00" type="DEFAULT_PEDTYPE" speedFactor="1.13" duration="2260.00" waitingTime="2110.00" timeLoss="41.12" traveltime="150.00">
        <ride waitingTime="2110.00" vehicle="t_1" depart="2760.00" arrival="2910.00" arrivalPos="79.20" duration="150.00" routeLength="464.54" timeLoss="41.12"/>
    </personinfo>
    <personinfo id="29" depart="725.00" type="DEFAULT_PEDTYPE" speedFactor="1.15" duration="2227.00" waitingTime="2082.00" timeLoss="31.60" traveltime="145.00">
        <ride waitingTime="2082.00" vehicle="t_0" depart="2807.00" arrival="2952.00" arrivalPos="83.20" duration="145.00" routeLength="567.55" timeLoss="31.60"/>
    </personinfo>
    <personinfo id="50" depart="1250.00" type="DEFAULT_PEDTYPE" speedFactor="1.02" duration="1803.00" waitingTime="1593.00" timeLoss="36.73" traveltime="210.00">
        <ride waitingTime="1593.00" vehicle="t_0" depart="2843.00" arrival="3053.00" arrivalPos="83.20" duration="210.00" routeLength="582.03" timeLoss="36.73"/>
    </personinfo>
    <personinfo id="51" depart="1275.00" type="DEFAULT_PEDTYPE" speedFactor="1.10" duration="1781.00" waitingTime="1543.00" timeLoss="67.69" traveltime="238.00">
        <ride waitingTime="1543.00" vehicle="t_1" depart="2818.00" arrival="3056.00" arrivalPos="83.20" duration="238.00" routeLength="476.06" timeLoss="67.69"/>
    </personinfo>
    <personinfo id="31" depart="775.00" type="DEFAULT_PEDTYPE" speedFactor="1.17" duration="2419.00" waitingTime="2326.00" timeLoss="7.87" traveltime="93.00">
        <ride waitingTime="2326.00" vehicle="t_0" depart="3101.00" arrival="3194.00" arrivalPos="0.20" duration="93.00" routeLength="185.15" timeLoss="7.87"/>
    </personinfo>
    <personinfo id="30" depart="750.00" type="DEFAULT_PEDTYPE" speedFactor="1.01" duration="2452.00" waitingTime="2331.00" timeLoss="29.06" traveltime="121.00">
        <ride waitingTime="2331.00" vehicle="t_1" depart="3081.00" arrival="3202.00" arrivalPos="0.20" duration="121.00" routeLength="203.75" timeLoss="29.06"/>
    </personinfo>
    <personinfo id="49" depart="1225.00" type="DEFAULT_PEDTYPE" speedFactor="1.17" duration="2088.00" waitingTime="1901.00" timeLoss="28.75" traveltime="187.00">
        <ride waitingTime="1901.00" vehicle="t_0" depart="3126.00" arrival="3313.00" arrivalPos="78.65" duration="187.00" routeLength="359.06" timeLoss="28.75"/>
    </personinfo>
    <personinfo id="44" depart="1100.00" type="DEFAULT_PEDTYPE" speedFactor="1.00" duration="2263.00" waitingTime="2013.00" timeLoss="81.54" traveltime="250.00">
        <ride waitingTime="2013.00" vehicle="t_1" depart="3113.00" arrival="3363.00" arrivalPos="83.20" duration="250.00" routeLength="390.21" timeLoss="81.54"/>
    </personinfo>
    <personinfo id="33" depart="825.00" type="DEFAULT_PEDTYPE" speedFactor="1.02" duration="2685.00" waitingTime="2576.00" timeLoss="16.37" traveltime="109.00">
        <ride waitingTime="2576.00" vehicle="t_0" depart="3401.00" arrival="3510.00" arrivalPos="78.65" duration="109.00" routeLength="276.25" timeLoss="16.37"/>
    </personinfo>
    <personinfo id="34" depart="850.00" type="DEFAULT_PEDTYPE" speedFactor="0.97" duration="2696.00" waitingTime="2668.00" timeLoss="5.97" traveltime="28.00">
        <ride waitingTime="2668.00" vehicle="t_1" depart="3518.00" arrival="3546.00" arrivalPos="4.99" duration="28.00" routeLength="199.47" timeLoss="5.97"/>
    </personinfo>
    <personinfo id="89" depart="2225.00" type="DEFAULT_PEDTYPE" speedFactor="0.89" duration="1405.00" waitingTime="1203.00" timeLoss="40.04" traveltime="202.00">
        <ride waitingTime="1203.00" vehicle="t_0" depart="3428.00" arrival="3630.00" arrivalPos="83.20" duration="202.00" routeLength="378.15" timeLoss="40.04"/>
    </personinfo>
    <personinfo id="75" depart="1875.00" type="DEFAULT_PEDTYPE" speedFactor="0.98" duration="1845.00" waitingTime="1672.00" timeLoss="16.08" traveltime="173.00">
        <ride waitingTime="1672.00" vehicle="t_1" depart="3547.00" arrival="3720.00" arrivalPos="83.20" duration="173.00" routeLength="280.20" timeLoss="16.08"/>
    </personinfo>
    <personinfo id="41" depart="1025.00" type="DEFAULT_PEDTYPE" speedFactor="1.04" duration="2778.00" waitingTime="2704.00" timeLoss="2.39" traveltime="74.00">
        <ride waitingTime="2704.00" vehicle="t_0" depart="3729.00" arrival="3803.00" arrivalPos="78.65" duration="74.00" routeLength="83.51" timeLoss="2.39"/>
    </personinfo>
    <personinfo id="36" depart="900.00" type="DEFAULT_PEDTYPE" speedFactor="1.10" duration="3001.00" waitingTime="2921.00" timeLoss="48.71" traveltime="80.00">
        <ride waitingTime="2921.00" vehicle="t_1" depart="3821.00" arrival="3901.00" arrivalPos="0.20" duration="80.00" routeLength="371.08" timeLoss="48.71"/>
    </personinfo>
    <personinfo id="35" depart="875.00" type="DEFAULT_PEDTYPE" speedFactor="1.18" duration="3071.00" waitingTime="2833.00" timeLoss="65.76" traveltime="238.00">
        <ride waitingTime="2833.00" vehicle="t_0" depart="3708.00" arrival="3946.00" arrivalPos="79.20" duration="238.00" routeLength="468.86" timeLoss="65.76"/>
    </personinfo>
    <personinfo id="63" depart="1575.00" type="DEFAULT_PEDTYPE" speedFactor="0.88" duration="2504.00" waitingTime="2386.00" timeLoss="36.00" traveltime="118.00">
        <ride waitingTime="2386.00" vehicle="t_1" depart="3961.00" arrival="4079.00" arrivalPos="83.20" duration="118.00" routeLength="198.67" timeLoss="36.00"/>
    </personinfo>
    <personinfo id="37" depart="925.00" type="DEFAULT_PEDTYPE" speedFactor="0.90" duration="3178.00" waitingTime="3101.00" timeLoss="52.43" traveltime="77.00">
        <ride waitingTime="3101.00" vehicle="t_0" depart="4026.00" arrival="4103.00" arrivalPos="5.00" duration="77.00" routeLength="244.10" timeLoss="52.43"/>
    </personinfo>
    <personinfo id="42" depart="1050.00" type="DEFAULT_PEDTYPE" speedFactor="1.04" duration="3191.00" waitingTime="3110.00" timeLoss="2.62" traveltime="81.00">
        <ride waitingTime="3110.00" vehicle="t_1" depart="4160.00" arrival="4241.00" arrivalPos="78.65" duration="81.00" routeLength="165.97" timeLoss="2.62"/>
    </personinfo>
    <personinfo id="48" depart="1200.00" type="DEFAULT_PEDTYPE" speedFactor="0.85" duration="3076.00" waitingTime="2904.00" timeLoss="10.42" traveltime="172.00">
        <ride waitingTime="2904.00" vehicle="t_0" depart="4104.00" arrival="4276.00" arrivalPos="79.20" duration="172.00" routeLength="386.93" timeLoss="10.42"/>
    </personinfo>
    <personinfo id="38" depart="950.00" type="DEFAULT_PEDTYPE" speedFactor="1.03" duration="3400.00" waitingTime="3197.00" timeLoss="15.13" traveltime="203.00">
        <ride waitingTime="3197.00" vehicle="t_1" depart="4147.00" arrival="4350.00" arrivalPos="79.20" duration="203.00" routeLength="652.16" timeLoss="15.13"/>
    </personinfo>
    <personinfo id="40" depart="1000.00" type="DEFAULT_PEDTYPE" speedFactor="1.09" duration="3482.00" waitingTime="3428.00" timeLoss="19.33" traveltime="54.00">
        <ride waitingTime="3428.00" vehicle="t_1" depart="4428.00" arrival="4482.00" arrivalPos="4.98" duration="54.00" routeLength="379.97" timeLoss="19.33"/>
    </personinfo>
    <personinfo id="39" depart="975.00" type="DEFAULT_PEDTYPE" speedFactor="0.96" duration="3618.00" waitingTime="3487.00" timeLoss="31.39" traveltime="131.00">
        <ride waitingTime="3487.00" vehicle="t_0" depart="4462.00" arrival="4593.00" arrivalPos="0.20" duration="131.00" routeLength="382.55" timeLoss="31.39"/>
    </personinfo>
    <personinfo id="56" depart="1400.00" type="DEFAULT_PEDTYPE" speedFactor="1.02" duration="3273.00" waitingTime="3083.00" timeLoss="32.43" traveltime="190.00">
        <ride waitingTime="3083.00" vehicle="t_1" depart="4483.00" arrival="4673.00" arrivalPos="79.20" duration="190.00" routeLength="352.26" timeLoss="32.43"/>
    </personinfo>
    <personinfo id="52" depart="1300.00" type="DEFAULT_PEDTYPE" speedFactor="1.00" duration="3454.00" waitingTime="3216.00" timeLoss="73.73" traveltime="238.00">
        <ride waitingTime="3216.00" vehicle="t_0" depart="4516.00" arrival="4754.00" arrivalPos="83.20" duration="238.00" routeLength="403.90" timeLoss="73.73"/>
    </personinfo>
    <personinfo id="45" depart="1125.00" type="DEFAULT_PEDTYPE" speedFactor="0.90" duration="3710.00" waitingTime="3606.00" timeLoss="7.08" traveltime="104.00">
        <ride waitingTime="3606.00" vehicle="t_1" depart="4731.00" arrival="4835.00" arrivalPos="79.20" duration="104.00" routeLength="297.96" timeLoss="7.08"/>
    </personinfo>
    <personinfo id="71" depart="1775.00" type="DEFAULT_PEDTYPE" speedFactor="1.06" duration="3162.00" waitingTime="2977.00" timeLoss="21.61" traveltime="185.00">
        <ride waitingTime="2977.00" vehicle="t_1" depart="4752.00" arrival="4937.00" arrivalPos="83.20" duration="185.00" routeLength="374.82" timeLoss="21.61"/>
    </personinfo>
    <personinfo id="46" depart="1150.00" type="DEFAULT_PEDTYPE" speedFactor="0.88" duration="3921.00" waitingTime="3727.00" timeLoss="75.10" traveltime="194.00">
        <ride waitingTime="3727.00" vehicle="t_0" depart="4877.00" arrival="5071.00" arrivalPos="79.20" duration="194.00" routeLength="585.09" timeLoss="75.10"/>
    </personinfo>
    <personinfo id="47" depart="1175.00" type="DEFAULT_PEDTYPE" speedFactor="0.85" duration="3992.00" waitingTime="3971.00" timeLoss="2.31" traveltime="21.00">
        <ride waitingTime="3971.00" vehicle="t_1" depart="5146.00" arrival="5167.00" arrivalPos="5.00" duration="21.00" routeLength="204.04" timeLoss="2.31"/>
    </personinfo>
    <personinfo id="80" depart="2000.00" type="DEFAULT_PEDTYPE" speedFactor="1.02" duration="3213.00" waitingTime="2958.00" timeLoss="79.12" traveltime="255.00">
        <ride waitingTime="2958.00" vehicle="t_0" depart="4958.00" arrival="5213.00" arrivalPos="83.20" duration="255.00" routeLength="582.06" timeLoss="79.12"/>
    </personinfo>
    <personinfo id="53" depart="1325.00" type="DEFAULT_PEDTYPE" speedFactor="1.00" duration="3992.00" waitingTime="3939.00" timeLoss="32.38" traveltime="53.00">
        <ride waitingTime="3939.00" vehicle="t_0" depart="5264.00" arrival="5317.00" arrivalPos="4.98" duration="53.00" routeLength="199.96" timeLoss="32.38"/>
    </personinfo>
    <personinfo id="55" depart="1375.00" type="DEFAULT_PEDTYPE" speedFactor="1.14" duration="3974.00" waitingTime="3793.00" timeLoss="12.35" traveltime="181.00">
        <ride waitingTime="3793.00" vehicle="t_1" depart="5168.00" arrival="5349.00" arrivalPos="78.65" duration="181.00" routeLength="451.73" timeLoss="12.35"/>
    </personinfo>
    <personinfo id="84" depart="2100.00" type="DEFAULT_PEDTYPE" speedFactor="1.00" duration="3378.00" waitingTime="3218.00" timeLoss="7.48" traveltime="160.00">
        <ride waitingTime="3218.00" vehicle="t_0" depart="5318.00" arrival="5478.00" arrivalPos="78.65" duration="160.00" routeLength="285.14" timeLoss="7.48"/>
    </personinfo>
    <personinfo id="54" depart="1350.00" type="DEFAULT_PEDTYPE" speedFactor="0.90" duration="4273.00" waitingTime="4157.00" timeLoss="12.60" traveltime="116.00">
        <ride waitingTime="4157.00" vehicle="t_1" depart="5507.00" arrival="5623.00" arrivalPos="79.20" duration="116.00" routeLength="377.87" timeLoss="12.60"/>
    </personinfo>
    <personinfo id="99" depart="2475.00" type="DEFAULT_PEDTYPE" speedFactor="0.96" duration="3149.00" waitingTime="3057.00" timeLoss="7.33" traveltime="92.00">
        <ride waitingTime="3057.00" vehicle="t_1" depart="5532.00" arrival="5624.00" arrivalPos="79.20" duration="92.00" routeLength="206.84" timeLoss="7.33"/>
    </personinfo>
    <personinfo id="57" depart="1425.00" type="DEFAULT_PEDTYPE" speedFactor="0.97" duration="4360.00" waitingTime="4208.00" timeLoss="39.05" traveltime="152.00">
        <ride waitingTime="4208.00" vehicle="t_0" depart="5633.00" arrival="5785.00" arrivalPos="83.20" duration="152.00" routeLength="584.77" timeLoss="39.05"/>
    </personinfo>
    <personinfo id="58" depart="1450.00" type="DEFAULT_PEDTYPE" speedFactor="1.08" duration="4352.00" waitingTime="4237.00" timeLoss="8.96" traveltime="115.00">
        <ride waitingTime="4237.00" vehicle="t_1" depart="5687.00" arrival="5802.00" arrivalPos="79.20" duration="115.00" routeLength="438.79" timeLoss="8.96"/>
    </personinfo>
    <personinfo id="60" depart="1500.00" type="DEFAULT_PEDTYPE" speedFactor="1.02" duration="4371.00" waitingTime="4203.00" timeLoss="8.39" traveltime="168.00">
        <ride waitingTime="4203.00" vehicle="t_0" depart="5703.00" arrival="5871.00" arrivalPos="0.20" duration="168.00" routeLength="382.69" timeLoss="8.39"/>
    </personinfo>
    <personinfo id="74" depart="1850.00" type="DEFAULT_PEDTYPE" speedFactor="1.03" duration="4135.00" waitingTime="3869.00" timeLoss="94.02" traveltime="266.00">
        <ride waitingTime="3869.00" vehicle="t_1" depart="5719.00" arrival="5985.00" arrivalPos="78.65" duration="266.00" routeLength="470.26" timeLoss="94.02"/>
    </personinfo>
    <personinfo id="59" depart="1475.00" type="DEFAULT_PEDTYPE" speedFactor="1.12" duration="4529.00" waitingTime="4413.00" timeLoss="12.00" traveltime="116.00">
        <ride waitingTime="4413.00" vehicle="t_0" depart="5888.00" arrival="6004.00" arrivalPos="78.65" duration="116.00" routeLength="393.82" timeLoss="12.00"/>
    </personinfo>
    <personinfo id="92" depart="2300.00" type="DEFAULT_PEDTYPE" speedFactor="1.09" duration="3770.00" waitingTime="3611.00" timeLoss="8.21" traveltime="159.00">
        <ride waitingTime="3611.00" vehicle="t_0" depart="5911.00" arrival="6070.00" arrivalPos="0.20" duration="159.00" routeLength="255.37" timeLoss="8.21"/>
    </personinfo>
    <personinfo id="61" depart="1525.00" type="DEFAULT_PEDTYPE" speedFactor="0.99" duration="4628.00" waitingTime="4556.00" timeLoss="38.62" traveltime="72.00">
        <ride waitingTime="4556.00" vehicle="t_1" depart="6081.00" arrival="6153.00" arrivalPos="5.00" duration="72.00" routeLength="378.89" timeLoss="38.62"/>
    </personinfo>
    <personinfo id="62" depart="1550.00" type="DEFAULT_PEDTYPE" speedFactor="0.94" duration="4674.00" waitingTime="4577.00" timeLoss="66.89" traveltime="97.00">
        <ride waitingTime="4577.00" vehicle="t_0" depart="6127.00" arrival="6224.00" arrivalPos="4.98" duration="97.00" routeLength="361.75" timeLoss="66.89"/>
    </personinfo>
    <personinfo id="65" depart="1625.00" type="DEFAULT_PEDTYPE" speedFactor="0.91" duration="4760.00" waitingTime="4529.00" timeLoss="57.08" traveltime="231.00">
        <ride waitingTime="4529.00" vehicle="t_1" depart="6154.00" arrival="6385.00" arrivalPos="79.20" duration="231.00" routeLength="536.95" timeLoss="57.08"/>
    </personinfo>
    <personinfo id="69" depart="1725.00" type="DEFAULT_PEDTYPE" speedFactor="0.97" duration="4706.00" waitingTime="4500.00" timeLoss="31.05" traveltime="206.00">
        <ride waitingTime="4500.00" vehicle="t_0" depart="6225.00" arrival="6431.00" arrivalPos="83.20" duration="206.00" routeLength="544.03" timeLoss="31.05"/>
    </personinfo>
    <personinfo id="66" depart="1650.00" type="DEFAULT_PEDTYPE" speedFactor="1.04" duration="4970.00" waitingTime="4883.00" timeLoss="54.81" traveltime="87.00">
        <ride waitingTime="4883.00" vehicle="t_0" depart="6533.00" arrival="6620.00" arrivalPos="5.00" duration="87.00" routeLength="360.13" timeLoss="54.81"/>
    </personinfo>
    <personinfo id="64" depart="1600.00" type="DEFAULT_PEDTYPE" speedFactor="0.91" duration="5060.00" waitingTime="4856.00" timeLoss="97.76" traveltime="204.00">
        <ride waitingTime="4856.00" vehicle="t_1" depart="6456.00" arrival="6660.00" arrivalPos="83.20" duration="204.00" routeLength="439.90" timeLoss="97.76"/>
    </personinfo>
    <personinfo id="78" depart="1950.00" type="DEFAULT_PEDTYPE" speedFactor="1.03" duration="4793.00" waitingTime="4627.00" timeLoss="8.50" traveltime="166.00">
        <ride waitingTime="4627.00" vehicle="t_1" depart="6577.00" arrival="6743.00" arrivalPos="0.20" duration="166.00" routeLength="294.04" timeLoss="8.50"/>
    </personinfo>
    <personinfo id="77" depart="1925.00" type="DEFAULT_PEDTYPE" speedFactor="1.09" duration="4902.00" waitingTime="4696.00" timeLoss="54.70" traveltime="206.00">
        <ride waitingTime="4696.00" vehicle="t_0" depart="6621.00" arrival="6827.00" arrivalPos="0.20" duration="206.00" routeLength="255.33" timeLoss="54.70"/>
    </personinfo>
    <personinfo id="67" depart="1675.00" type="DEFAULT_PEDTYPE" speedFactor="1.02" duration="5307.00" waitingTime="5183.00" timeLoss="26.94" traveltime="124.00">
        <ride waitingTime="5183.00" vehicle="t_1" depart="6858.00" arrival="6982.00" arrivalPos="79.20" duration="124.00" routeLength="357.12" timeLoss="26.94"/>
    </personinfo>
    <personinfo id="68" depart="1700.00" type="DEFAULT_PEDTYPE" speedFactor="1.02" duration="5322.00" waitingTime="5194.00" timeLoss="26.88" traveltime="128.00">
        <ride waitingTime="5194.00" vehicle="t_0" depart="6894.00" arrival="7022.00" arrivalPos="83.20" duration="128.00" routeLength="484.74" timeLoss="26.88"/>
    </personinfo>
    <personinfo id="116" depart="2900.00" type="DEFAULT_PEDTYPE" speedFactor="0.99" duration="4195.00" waitingTime="4002.00" timeLoss="34.17" traveltime="193.00">
        <ride waitingTime="4002.00" vehicle="t_1" depart="6902.00" arrival="7095.00" arrivalPos="83.20" duration="193.00" routeLength="375.64" timeLoss="34.17"/>
    </personinfo>
    <personinfo id="85" depart="2125.00" type="DEFAULT_PEDTYPE" speedFactor="1.04" duration="4984.00" waitingTime="4769.00" timeLoss="32.49" traveltime="215.00">
        <ride waitingTime="4769.00" vehicle="t_0" depart="6894.00" arrival="7109.00" arrivalPos="83.20" duration="215.00" routeLength="688.74" timeLoss="32.49"/>
    </personinfo>
    <personinfo id="73" depart="1825.00" type="DEFAULT_PEDTYPE" speedFactor="0.98" duration="5392.00" waitingTime="5346.00" timeLoss="26.53" traveltime="46.00">
        <ride waitingTime="5346.00" vehicle="t_1" depart="7171.00" arrival="7217.00" arrivalPos="5.00" duration="46.00" routeLength="186.65" timeLoss="26.53"/>
    </personinfo>
    <personinfo id="70" depart="1750.00" type="DEFAULT_PEDTYPE" speedFactor="0.94" duration="5678.00" waitingTime="5498.00" timeLoss="71.43" traveltime="180.00">
        <ride waitingTime="5498.00" vehicle="t_0" depart="7248.00" arrival="7428.00" arrivalPos="78.65" duration="180.00" routeLength="552.18" timeLoss="71.43"/>
    </personinfo>
    <personinfo id="72" depart="1800.00" type="DEFAULT_PEDTYPE" speedFactor="0.96" duration="5629.00" waitingTime="5448.00" timeLoss="71.43" traveltime="181.00">