<?xml version="1.0" encoding="UTF-8"?>

<!-- generated on 2025-10-11 13:43:52 by Eclipse SUMO GUI Version 1.24.0
<sumoConfiguration xmlns:xsi="http://www.w3.org/2001/XMLSchema-instance" xsi:noNamespaceSchemaLocation="http://sumo.dlr.de/xsd/sumoConfiguration.xsd">

    <input>
        <net-file value=".\RLTrainingMap1\map.net.xml"/>
        <route-files value=".\RLTrainingMap1\map.rou.xml,.\RLTrainingMap1\persontrips_scale.rou.xml"/>
    </input>

    <output>
        <tripinfo-output value=".\RLTrainingMap1\tripinfos.xml"/>
        <stop-output value=".\RLTrainingMap1\stopinfos.xml"/>
        <statistic-output value=".\RLTrainingMap1\stats.xml"/>
    </output>

    <time>
        <step-length value="1.0"/>
    </time>

    <report>
        <verbose value="true"/>
        <duration-log.statistics value="true"/>
        <no-step-log value="true"/>
    </report>

    <taxi_device>
        <device.taxi.dispatch-algorithm value="traci"/>
    </taxi_device>

    <traci_server>
        <remote-port value="55156"/>
    </traci_server>

</sumoConfiguration>
-->

<tripinfos xmlns:xsi="http://www.w3.org/2001/XMLSchema-instance" xsi:noNamespaceSchemaLocation="http://sumo.dlr.de/xsd/tripinfo_file.xsd">
    <personinfo id="0" depart="70.00" type="DEFAULT_PEDTYPE" speedFactor="1.01" duration="248.00" waitingTime="84.00" timeLoss="62.91" traveltime="164.00">
        <ride waitingTime="84.00" vehicle="t_0" depart="154.00" arrival="318.00" arrivalPos="83.20" duration="164.00" routeLength="562.73" timeLoss="62.91"/>
    </personinfo>
    <personinfo id="1" depart="129.00" type="DEFAULT_PEDTYPE" speedFactor="1.08" duration="205.00" waitingTime="104.00" timeLoss="15.25" traveltime="101.00">
        <ride waitingTime="104.00" vehicle="t_1" depart="233.00" arrival="334.00" arrivalPos="83.20" duration="101.00" routeLength="338.56" timeLoss="15.25"/>
    </personinfo>
    <personinfo id="2" depart="289.00" type="DEFAULT_PEDTYPE" speedFactor="1.03" duration="250.00" waitingTime="124.00" timeLoss="41.83" traveltime="126.00">
        <ride waitingTime="124.00" vehicle="t_0" depart="413.00" arrival="539.00" arrivalPos="78.65" duration="126.00" routeLength="345.80" timeLoss="41.83"/>
    </personinfo>
    <personinfo id="3" depart="370.00" type="DEFAULT_PEDTYPE" speedFactor="0.89" duration="335.00" waitingTime="133.00" timeLoss="97.15" traveltime="202.00">
        <ride waitingTime="133.00" vehicle="t_1" depart="503.00" arrival="705.00" arrivalPos="79.20" duration="202.00" routeLength="571.29" timeLoss="97.15"/>
    </personinfo>
    <personinfo id="6" depart="442.00" type="DEFAULT_PEDTYPE" speedFactor="1.09" duration="361.00" waitingTime="170.00" timeLoss="91.67" traveltime="191.00">
        <ride waitingTime="170.00" vehicle="t_0" depart="612.00" arrival="803.00" arrivalPos="83.20" duration="191.00" routeLength="553.36" timeLoss="91.67"/>
    </personinfo>
    <personinfo id="4" depart="417.00" type="DEFAULT_PEDTYPE" speedFactor="0.94" duration="458.00" waitingTime="309.00" timeLoss="46.22" traveltime="149.00">
        <ride waitingTime="309.00" vehicle="t_1" depart="726.00" arrival="875.00" arrivalPos="83.20" duration="149.00" routeLength="555.61" timeLoss="46.22"/>
    </personinfo>
    <personinfo id="5" depart="441.00" type="DEFAULT_PEDTYPE" speedFactor="0.86" duration="579.00" waitingTime="421.00" timeLoss="60.59" traveltime="158.00">
        <ride waitingTime="421.00" vehicle="t_0" depart="862.00" arrival="1020.00" arrivalPos="79.20" duration="158.00" routeLength="528.49" timeLoss="60.59"/>
    </personinfo>
    <personinfo id="7" depart="605.00" type="DEFAULT_PEDTYPE" speedFactor="1.03" duration="550.00" waitingTime="332.00" timeLoss="119.58" traveltime="218.00">
        <ride waitingTime="332.00" vehicle="t_1" depart="937.00" arrival="1155.00" arrivalPos="83.20" duration="218.00" routeLength="492.40" timeLoss="119.58"/>
    </personinfo>
    <personinfo id="9" depart="672.00" type="DEFAULT_PEDTYPE" speedFactor="0.94" duration="501.00" waitingTime="376.00" timeLoss="39.65" traveltime="125.00">
        <ride waitingTime="376.00" vehicle="t_0" depart="1048.00" arrival="1173.00" arrivalPos="83.20" duration="125.00" routeLength="368.04" timeLoss="39.65"/>
    </personinfo>
    <personinfo id="13" depart="893.00" type="DEFAULT_PEDTYPE" speedFactor="1.01" duration="289.00" waitingTime="289.00" timeLoss="0.00" traveltime="1182.00">
        <ride waitingTime="289.00" vehicle="t_0" depart="-1" arrival="1182.00" arrivalPos="4.99" duration="1182.00" routeLength="0.03" timeLoss="0.00"/>
    </personinfo>
    <personinfo id="11" depart="858.00" type="DEFAULT_PEDTYPE" speedFactor="1.16" duration="480.00" waitingTime="365.00" timeLoss="18.86" traveltime="115.00">
        <ride waitingTime="365.00" vehicle="t_0" depart="1223.00" arrival="1338.00" arrivalPos="78.65" duration="115.00" routeLength="475.37" timeLoss="18.86"/>
    </personinfo>
    <personinfo id="18" depart="1255.00" type="DEFAULT_PEDTYPE" speedFactor="0.92" duration="181.00" waitingTime="74.00" timeLoss="27.03" traveltime="107.00">
        <ride waitingTime="74.00" vehicle="t_1" depart="1329.00" arrival="1436.00" arrivalPos="78.65" duration="107.00" routeLength="264.86" timeLoss="27.03"/>
    </personinfo>
    <personinfo id="17" depart="1181.00" type="DEFAULT_PEDTYPE" speedFactor="0.87" duration="334.00" waitingTime="179.00" timeLoss="69.04" traveltime="155.00">
        <ride waitingTime="179.00" vehicle="t_0" depart="1360.00" arrival="1515.00" arrivalPos="83.20" duration="155.00" routeLength="376.23" timeLoss="69.04"/>
    </personinfo>
    <personinfo id="10" depart="692.00" type="DEFAULT_PEDTYPE" speedFactor="0.94" duration="929.00" waitingTime="830.00" timeLoss="13.54" traveltime="99.00">
        <ride waitingTime="830.00" vehicle="t_0" depart="1522.00" arrival="1621.00" arrivalPos="79.20" duration="99.00" routeLength="365.97" timeLoss="13.54"/>
    </personinfo>
    <personinfo id="20" depart="1349.00" type="DEFAULT_PEDTYPE" speedFactor="1.04" duration="280.00" waitingTime="100.00" timeLoss="76.62" traveltime="180.00">
        <ride waitingTime="100.00" vehicle="t_1" depart="1449.00" arrival="1629.00" arrivalPos="83.20" duration="180.00" routeLength="582.10" timeLoss="76.62"/>
    </personinfo>
    <personinfo id="21" depart="1356.00" type="DEFAULT_PEDTYPE" speedFactor="1.09" duration="440.00" waitingTime="302.00" timeLoss="50.38" traveltime="138.00">
        <ride waitingTime="302.00" vehicle="t_1" depart="1658.00" arrival="1796.00" arrivalPos="79.20" duration="138.00" routeLength="363.23" timeLoss="50.38"/>
    </personinfo>
    <personinfo id="8" depart="672.00" type="DEFAULT_PEDTYPE" speedFactor="0.88" duration="1200.00" waitingTime="1089.00" timeLoss="19.79" traveltime="111.00">
        <ride waitingTime="1089.00" vehicle="t_0" depart="1761.00" arrival="1872.00" arrivalPos="78.65" duration="111.00" routeLength="440.31" timeLoss="19.79"/>
    </personinfo>
    <personinfo id="19" depart="1318.00" type="DEFAULT_PEDTYPE" speedFactor="0.95" duration="667.00" waitingTime="562.00" timeLoss="16.34" traveltime="105.00">
        <ride waitingTime="562.00" vehicle="t_1" depart="1880.00" arrival="1985.00" arrivalPos="78.65" duration="105.00" routeLength="365.94" timeLoss="16.34"/>
    </personinfo>
    <personinfo id="23" depart="1552.00" type="DEFAULT_PEDTYPE" speedFactor="0.90" duration="641.00" waitingTime="491.00" timeLoss="59.16" traveltime="150.00">
        <ride waitingTime="491.00" vehicle="t_1" depart="2043.00" arrival="2193.00" arrivalPos="79.20" duration="150.00" routeLength="396.71" timeLoss="59.16"/>
    </personinfo>
    <personinfo id="12" depart="862.00" type="DEFAULT_PEDTYPE" speedFactor="1.02" duration="1372.00" waitingTime="1223.00" timeLoss="46.87" traveltime="149.00">
        <ride waitingTime="1223.00" vehicle="t_0" depart="2085.00" arrival="2234.00" arrivalPos="78.65" duration="149.00" routeLength="572.30" timeLoss="46.87"/>
    </personinfo>
    <personinfo id="14" depart="949.00" type="DEFAULT_PEDTYPE" speedFactor="0.97" duration="1463.00" waitingTime="1374.00" timeLoss="14.00" traveltime="89.00">
        <ride waitingTime="1374.00" vehicle="t_1" depart="2323.00" arrival="2412.00" arrivalPos="78.65" duration="89.00" routeLength="187.99" timeLoss="14.00"/>
    </personinfo>
    <personinfo id="15" depart="982.00" type="DEFAULT_PEDTYPE" speedFactor="0.89" duration="1478.00" waitingTime="1329.00" timeLoss="55.35" traveltime="149.00">
        <ride waitingTime="1329.00" vehicle="t_0" depart="2311.00" arrival="2460.00" arrivalPos="79.20" duration="149.00" routeLength="466.39" timeLoss="55.35"/>
    </personinfo>
    <personinfo id="16" depart="1089.00" type="DEFAULT_PEDTYPE" speedFactor="0.83" duration="1515.00" waitingTime="1331.00" timeLoss="88.58" traveltime="184.00">
        <ride waitingTime="1331.00" vehicle="t_1" depart="2420.00" arrival="2604.00" arrivalPos="83.20" duration="184.00" routeLength="467.98" timeLoss="88.58"/>
    </personinfo>
    <personinfo id="22" depart="1490.00" type="DEFAULT_PEDTYPE" speedFactor="1.00" duration="1238.00" waitingTime="1082.00" timeLoss="65.08" traveltime="156.00">
        <ride waitingTime="1082.00" vehicle="t_0" depart="2572.00" arrival="2728.00" arrivalPos="79.20" duration="156.00" routeLength="436.23" timeLoss="65.08"/>
    </personinfo>
    <personinfo id="25" depart="1761.00" type="DEFAULT_PEDTYPE" speedFactor="0.98" duration="1069.00" waitingTime="876.00" timeLoss="97.81" traveltime="193.00">
        <ride waitingTime="876.00" vehicle="t_1" depart="2637.00" arrival="2830.00" arrivalPos="83.20" duration="193.00" routeLength="451.23" timeLoss="97.81"/>
    </personinfo>
    <personinfo id="24" depart="1636.00" type="DEFAULT_PEDTYPE" speedFactor="1.15" duration="1285.00" waitingTime="1111.00" timeLoss="80.12" traveltime="174.00">
        <ride waitingTime="1111.00" vehicle="t_0" depart="2747.00" arrival="2921.00" arrivalPos="78.65" duration="174.00" routeLength="470.27" timeLoss="80.12"/>
    </personinfo>
</tripinfos>
