<?xml version="1.0" encoding="UTF-8"?>

<!-- generated on 2025-10-10 11:33:17 by Eclipse SUMO sumo Version 1.24.0
<sumoConfiguration xmlns:xsi="http://www.w3.org/2001/XMLSchema-instance" xsi:noNamespaceSchemaLocation="http://sumo.dlr.de/xsd/sumoConfiguration.xsd">

    <input>
        <net-file value=".\RLTrainingMap1\map.net.xml"/>
        <route-files value=".\RLTrainingMap1\map.rou.xml,.\RLTrainingMap1\persontrips_scale.rou.xml"/>
    </input>

    <output>
        <tripinfo-output value=".\RLTrainingMap1\tripinfos.xml"/>
        <stop-output value=".\RLTrainingMap1\stopinfos.xml"/>
        <statistic-output value=".\RLTrainingMap1\stats.xml"/>
    </output>

    <time>
        <step-length value="1.0"/>
    </time>

    <report>
        <verbose value="true"/>
        <duration-log.statistics value="true"/>
        <no-step-log value="true"/>
    </report>

    <taxi_device>
        <device.taxi.dispatch-algorithm value="traci"/>
    </taxi_device>

    <traci_server>
        <remote-port value="64301"/>
    </traci_server>

</sumoConfiguration>
-->

<tripinfos xmlns:xsi="http://www.w3.org/2001/XMLSchema-instance" xsi:noNamespaceSchemaLocation="http://sumo.dlr.de/xsd/tripinfo_file.xsd">
    <personinfo id="0" depart="70.00" type="DEFAULT_PEDTYPE" speedFactor="1.01" duration="248.00" waitingTime="84.00" timeLoss="62.91" traveltime="164.00">
        <ride waitingTime="84.00" vehicle="t_0" depart="154.00" arrival="318.00" arrivalPos="83.20" duration="164.00" routeLength="562.73" timeLoss="62.91"/>
    </personinfo>
    <personinfo id="1" depart="129.00" type="DEFAULT_PEDTYPE" speedFactor="1.08" duration="205.00" waitingTime="104.00" timeLoss="15.25" traveltime="101.00">
        <ride waitingTime="104.00" vehicle="t_1" depart="233.00" arrival="334.00" arrivalPos="83.20" duration="101.00" routeLength="338.56" timeLoss="15.25"/>
    </personinfo>
    <personinfo id="2" depart="289.00" type="DEFAULT_PEDTYPE" speedFactor="1.03" duration="251.00" waitingTime="124.00" timeLoss="42.83" traveltime="127.00">
        <ride waitingTime="124.00" vehicle="t_0" depart="413.00" arrival="540.00" arrivalPos="78.65" duration="127.00" routeLength="345.81" timeLoss="42.83"/>
    </personinfo>
    <personinfo id="3" depart="370.00" type="DEFAULT_PEDTYPE" speedFactor="0.89" duration="246.00" waitingTime="64.00" timeLoss="77.44" traveltime="182.00">
        <ride waitingTime="64.00" vehicle="t_1" depart="434.00" arrival="616.00" arrivalPos="79.20" duration="182.00" routeLength="571.28" timeLoss="77.44"/>
    </personinfo>
    <personinfo id="6" depart="442.00" type="DEFAULT_PEDTYPE" speedFactor="1.09" duration="361.00" waitingTime="170.00" timeLoss="91.23" traveltime="191.00">
        <ride waitingTime="170.00" vehicle="t_0" depart="612.00" arrival="803.00" arrivalPos="83.20" duration="191.00" routeLength="553.36" timeLoss="91.23"/>
    </personinfo>
    <personinfo id="5" depart="441.00" type="DEFAULT_PEDTYPE" speedFactor="0.86" duration="365.00" waitingTime="249.00" timeLoss="29.04" traveltime="116.00">
        <ride waitingTime="249.00" vehicle="t_1" depart="690.00" arrival="806.00" arrivalPos="79.20" duration="116.00" routeLength="350.01" timeLoss="29.04"/>
    </personinfo>
    <personinfo id="9" depart="672.00" type="DEFAULT_PEDTYPE" speedFactor="0.94" duration="319.00" waitingTime="185.00" timeLoss="48.68" traveltime="134.00">
        <ride waitingTime="185.00" vehicle="t_0" depart="857.00" arrival="991.00" arrivalPos="83.20" duration="134.00" routeLength="368.00" timeLoss="48.68"/>
    </personinfo>
    <personinfo id="10" depart="692.00" type="DEFAULT_PEDTYPE" speedFactor="1.16" duration="302.00" waitingTime="172.00" timeLoss="41.81" traveltime="130.00">
        <ride waitingTime="172.00" vehicle="t_1" depart="864.00" arrival="994.00" arrivalPos="79.20" duration="130.00" routeLength="365.93" timeLoss="41.81"/>
    </personinfo>
    <personinfo id="8" depart="672.00" type="DEFAULT_PEDTYPE" speedFactor="0.94" duration="537.00" waitingTime="379.00" timeLoss="67.27" traveltime="158.00">
        <ride waitingTime="379.00" vehicle="t_0" depart="1051.00" arrival="1209.00" arrivalPos="78.65" duration="158.00" routeLength="440.25" timeLoss="67.27"/>
    </personinfo>
    <personinfo id="7" depart="605.00" type="DEFAULT_PEDTYPE" speedFactor="1.03" duration="640.00" waitingTime="483.00" timeLoss="58.83" traveltime="157.00">
        <ride waitingTime="483.00" vehicle="t_1" depart="1088.00" arrival="1245.00" arrivalPos="83.20" duration="157.00" routeLength="492.37" timeLoss="58.83"/>
    </personinfo>
    <personinfo id="16" depart="1089.00" type="DEFAULT_PEDTYPE" speedFactor="1.18" duration="344.00" waitingTime="163.00" timeLoss="87.65" traveltime="181.00">
        <ride waitingTime="163.00" vehicle="t_0" depart="1252.00" arrival="1433.00" arrivalPos="83.20" duration="181.00" routeLength="468.00" timeLoss="87.65"/>
    </personinfo>
    <personinfo id="4" depart="417.00" type="DEFAULT_PEDTYPE" speedFactor="0.94" duration="1161.00" waitingTime="995.00" timeLoss="63.47" traveltime="166.00">
        <ride waitingTime="995.00" vehicle="t_1" depart="1412.00" arrival="1578.00" arrivalPos="83.20" duration="166.00" routeLength="555.61" timeLoss="63.47"/>
    </personinfo>
    <personinfo id="12" depart="862.00" type="DEFAULT_PEDTYPE" speedFactor="1.17" duration="772.00" waitingTime="636.00" timeLoss="33.91" traveltime="136.00">
        <ride waitingTime="636.00" vehicle="t_0" depart="1498.00" arrival="1634.00" arrivalPos="78.65" duration="136.00" routeLength="572.34" timeLoss="33.91"/>
    </personinfo>
    <personinfo id="13" depart="893.00" type="DEFAULT_PEDTYPE" speedFactor="0.99" duration="788.00" waitingTime="788.00" timeLoss="0.00" traveltime="1681.00">
        <ride waitingTime="788.00" vehicle="t_0" depart="-1" arrival="1681.00" arrivalPos="4.99" duration="1681.00" routeLength="0.02" timeLoss="0.00"/>
    </personinfo>
    <personinfo id="18" depart="1255.00" type="DEFAULT_PEDTYPE" speedFactor="1.00" duration="484.00" waitingTime="391.00" timeLoss="13.62" traveltime="93.00">
        <ride waitingTime="391.00" vehicle="t_1" depart="1646.00" arrival="1739.00" arrivalPos="78.65" duration="93.00" routeLength="264.81" timeLoss="13.62"/>
    </personinfo>
    <personinfo id="11" depart="858.00" type="DEFAULT_PEDTYPE" speedFactor="1.02" duration="1021.00" waitingTime="905.00" timeLoss="20.34" traveltime="116.00">
        <ride waitingTime="905.00" vehicle="t_0" depart="1763.00" arrival="1879.00" arrivalPos="78.65" duration="116.00" routeLength="475.41" timeLoss="20.34"/>
    </personinfo>
    <personinfo id="20" depart="1349.00" type="DEFAULT_PEDTYPE" speedFactor="0.94" duration="549.00" waitingTime="402.00" timeLoss="43.46" traveltime="147.00">
        <ride waitingTime="402.00" vehicle="t_1" depart="1751.00" arrival="1898.00" arrivalPos="83.20" duration="147.00" routeLength="582.02" timeLoss="43.46"/>
    </personinfo>
    <personinfo id="19" depart="1318.00" type="DEFAULT_PEDTYPE" speedFactor="1.00" duration="737.00" waitingTime="631.00" timeLoss="16.72" traveltime="106.00">
        <ride waitingTime="631.00" vehicle="t_1" depart="1949.00" arrival="2055.00" arrivalPos="78.65" duration="106.00" routeLength="365.93" timeLoss="16.72"/>
    </personinfo>
    <personinfo id="21" depart="1356.00" type="DEFAULT_PEDTYPE" speedFactor="0.88" duration="708.00" waitingTime="586.00" timeLoss="35.45" traveltime="122.00">
        <ride waitingTime="586.00" vehicle="t_0" depart="1942.00" arrival="2064.00" arrivalPos="79.20" duration="122.00" routeLength="363.21" timeLoss="35.45"/>
    </personinfo>
    <personinfo id="14" depart="949.00" type="DEFAULT_PEDTYPE" speedFactor="1.02" duration="1287.00" waitingTime="1200.00" timeLoss="13.27" traveltime="87.00">
        <ride waitingTime="1200.00" vehicle="t_0" depart="2149.00" arrival="2236.00" arrivalPos="78.65" duration="87.00" routeLength="187.94" timeLoss="13.27"/>
    </personinfo>
    <personinfo id="15" depart="982.00" type="DEFAULT_PEDTYPE" speedFactor="0.97" duration="1389.00" waitingTime="1196.00" timeLoss="96.77" traveltime="193.00">
        <ride waitingTime="1196.00" vehicle="t_1" depart="2178.00" arrival="2371.00" arrivalPos="79.20" duration="193.00" routeLength="466.43" timeLoss="96.77"/>
    </personinfo>
    <personinfo id="24" depart="1636.00" type="DEFAULT_PEDTYPE" speedFactor="1.01" duration="837.00" waitingTime="683.00" timeLoss="59.90" traveltime="154.00">
        <ride waitingTime="683.00" vehicle="t_0" depart="2319.00" arrival="2473.00" arrivalPos="78.65" duration="154.00" routeLength="470.26" timeLoss="59.90"/>
    </personinfo>
    <personinfo id="25" depart="1761.00" type="DEFAULT_PEDTYPE" speedFactor="1.09" duration="799.00" waitingTime="641.00" timeLoss="63.03" traveltime="158.00">
        <ride waitingTime="641.00" vehicle="t_1" depart="2402.00" arrival="2560.00" arrivalPos="83.20" duration="158.00" routeLength="451.22" timeLoss="63.03"/>
    </personinfo>
    <personinfo id="17" depart="1181.00" type="DEFAULT_PEDTYPE" speedFactor="1.10" duration="1503.00" waitingTime="1311.00" timeLoss="106.24" traveltime="192.00">
        <ride waitingTime="1311.00" vehicle="t_0" depart="2492.00" arrival="2684.00" arrivalPos="83.20" duration="192.00" routeLength="376.26" timeLoss="106.24"/>
    </personinfo>
    <personinfo id="22" depart="1490.00" type="DEFAULT_PEDTYPE" speedFactor="0.91" duration="1237.00" waitingTime="1128.00" timeLoss="15.96" traveltime="109.00">
        <ride waitingTime="1128.00" vehicle="t_1" depart="2618.00" arrival="2727.00" arrivalPos="79.20" duration="109.00" routeLength="436.22" timeLoss="15.96"/>
    </personinfo>
    <personinfo id="23" depart="1552.00" type="DEFAULT_PEDTYPE" speedFactor="0.91" duration="1290.00" waitingTime="1181.00" timeLoss="19.88" traveltime="109.00">
        <ride waitingTime="1181.00" vehicle="t_0" depart="2733.00" arrival="2842.00" arrivalPos="79.20" duration="109.00" routeLength="396.74" timeLoss="19.88"/>
    </personinfo>
</tripinfos>
