<?xml version="1.0" encoding="UTF-8"?>

<!-- generated on 2025-10-11 01:38:16 by Eclipse SUMO sumo Version 1.24.0
<sumoConfiguration xmlns:xsi="http://www.w3.org/2001/XMLSchema-instance" xsi:noNamespaceSchemaLocation="http://sumo.dlr.de/xsd/sumoConfiguration.xsd">

    <input>
        <net-file value=".\RLTrainingMap1\map.net.xml"/>
        <route-files value=".\RLTrainingMap1\map.rou.xml,.\RLTrainingMap1\persontrips_scale.rou.xml"/>
    </input>

    <output>
        <tripinfo-output value=".\RLTrainingMap1\tripinfos.xml"/>
        <stop-output value=".\RLTrainingMap1\stopinfos.xml"/>
        <statistic-output value=".\RLTrainingMap1\stats.xml"/>
    </output>

    <time>
        <step-length value="1.0"/>
    </time>

    <report>
        <verbose value="true"/>
        <duration-log.statistics value="true"/>
        <no-step-log value="true"/>
    </report>

    <taxi_device>
        <device.taxi.dispatch-algorithm value="traci"/>
    </taxi_device>

    <traci_server>
        <remote-port value="50114"/>
    </traci_server>

</sumoConfiguration>
-->

<tripinfos xmlns:xsi="http://www.w3.org/2001/XMLSchema-instance" xsi:noNamespaceSchemaLocation="http://sumo.dlr.de/xsd/tripinfo_file.xsd">
    <personinfo id="1" depart="129.00" type="DEFAULT_PEDTYPE" speedFactor="1.08" duration="186.00" waitingTime="86.00" timeLoss="15.21" traveltime="100.00">
        <ride waitingTime="86.00" vehicle="t_0" depart="215.00" arrival="315.00" arrivalPos="83.20" duration="100.00" routeLength="338.57" timeLoss="15.21"/>
    </personinfo>
    <personinfo id="0" depart="70.00" type="DEFAULT_PEDTYPE" speedFactor="1.01" duration="266.00" waitingTime="138.00" timeLoss="24.15" traveltime="128.00">
        <ride waitingTime="138.00" vehicle="t_1" depart="208.00" arrival="336.00" arrivalPos="83.20" duration="128.00" routeLength="562.73" timeLoss="24.15"/>
    </personinfo>
    <personinfo id="2" depart="289.00" type="DEFAULT_PEDTYPE" speedFactor="1.03" duration="251.00" waitingTime="114.00" timeLoss="52.83" traveltime="137.00">
        <ride waitingTime="114.00" vehicle="t_0" depart="403.00" arrival="540.00" arrivalPos="78.65" duration="137.00" routeLength="345.81" timeLoss="52.83"/>
    </personinfo>
    <personinfo id="3" depart="370.00" type="DEFAULT_PEDTYPE" speedFactor="0.94" duration="245.00" waitingTime="89.00" timeLoss="50.84" traveltime="156.00">
        <ride waitingTime="89.00" vehicle="t_1" depart="459.00" arrival="615.00" arrivalPos="79.20" duration="156.00" routeLength="571.30" timeLoss="50.84"/>
    </personinfo>
    <personinfo id="4" depart="417.00" type="DEFAULT_PEDTYPE" speedFactor="0.86" duration="350.00" waitingTime="185.00" timeLoss="64.37" traveltime="165.00">
        <ride waitingTime="185.00" vehicle="t_0" depart="602.00" arrival="767.00" arrivalPos="83.20" duration="165.00" routeLength="555.61" timeLoss="64.37"/>
    </personinfo>
    <personinfo id="5" depart="441.00" type="DEFAULT_PEDTYPE" speedFactor="1.09" duration="365.00" waitingTime="251.00" timeLoss="27.24" traveltime="114.00">
        <ride waitingTime="251.00" vehicle="t_1" depart="692.00" arrival="806.00" arrivalPos="79.20" duration="114.00" routeLength="350.00" timeLoss="27.24"/>
    </personinfo>
    <personinfo id="6" depart="442.00" type="DEFAULT_PEDTYPE" speedFactor="1.03" duration="542.00" waitingTime="384.00" timeLoss="58.71" traveltime="158.00">
        <ride waitingTime="384.00" vehicle="t_0" depart="826.00" arrival="984.00" arrivalPos="83.20" duration="158.00" routeLength="553.39" timeLoss="58.71"/>
    </personinfo>
    <personinfo id="7" depart="605.00" type="DEFAULT_PEDTYPE" speedFactor="1.05" duration="463.00" waitingTime="255.00" timeLoss="109.55" traveltime="208.00">
        <ride waitingTime="255.00" vehicle="t_1" depart="860.00" arrival="1068.00" arrivalPos="83.20" duration="208.00" routeLength="492.44" timeLoss="109.55"/>
    </personinfo>
    <personinfo id="13" depart="893.00" type="DEFAULT_PEDTYPE" speedFactor="0.89" duration="194.00" waitingTime="194.00" timeLoss="0.00" traveltime="1087.00">
        <ride waitingTime="194.00" vehicle="t_0" depart="-1" arrival="1087.00" arrivalPos="5.00" duration="1087.00" routeLength="0.04" timeLoss="0.00"/>
    </personinfo>
    <personinfo id="11" depart="858.00" type="DEFAULT_PEDTYPE" speedFactor="0.94" duration="362.00" waitingTime="246.00" timeLoss="17.69" traveltime="116.00">
        <ride waitingTime="246.00" vehicle="t_1" depart="1104.00" arrival="1220.00" arrivalPos="78.65" duration="116.00" routeLength="475.33" timeLoss="17.69"/>
    </personinfo>
    <personinfo id="9" depart="672.00" type="DEFAULT_PEDTYPE" speedFactor="0.88" duration="595.00" waitingTime="495.00" timeLoss="15.28" traveltime="100.00">
        <ride waitingTime="495.00" vehicle="t_0" depart="1167.00" arrival="1267.00" arrivalPos="83.20" duration="100.00" routeLength="368.04" timeLoss="15.28"/>
    </personinfo>
    <personinfo id="17" depart="1181.00" type="DEFAULT_PEDTYPE" speedFactor="1.09" duration="242.00" waitingTime="69.00" timeLoss="85.45" traveltime="173.00">
        <ride waitingTime="69.00" vehicle="t_1" depart="1250.00" arrival="1423.00" arrivalPos="83.20" duration="173.00" routeLength="376.22" timeLoss="85.45"/>
    </personinfo>
    <personinfo id="8" depart="672.00" type="DEFAULT_PEDTYPE" speedFactor="0.93" duration="806.00" waitingTime="660.00" timeLoss="54.67" traveltime="146.00">
        <ride waitingTime="660.00" vehicle="t_0" depart="1332.00" arrival="1478.00" arrivalPos="78.65" duration="146.00" routeLength="440.27" timeLoss="54.67"/>
    </personinfo>
    <personinfo id="10" depart="692.00" type="DEFAULT_PEDTYPE" speedFactor="0.94" duration="856.00" waitingTime="754.00" timeLoss="14.16" traveltime="102.00">
        <ride waitingTime="754.00" vehicle="t_1" depart="1446.00" arrival="1548.00" arrivalPos="79.20" duration="102.00" routeLength="366.00" timeLoss="14.16"/>
    </personinfo>
    <personinfo id="12" depart="862.00" type="DEFAULT_PEDTYPE" speedFactor="0.97" duration="832.00" waitingTime="683.00" timeLoss="47.23" traveltime="149.00">
        <ride waitingTime="683.00" vehicle="t_0" depart="1545.00" arrival="1694.00" arrivalPos="78.65" duration="149.00" routeLength="572.28" timeLoss="47.23"/>
    </personinfo>
    <personinfo id="19" depart="1318.00" type="DEFAULT_PEDTYPE" speedFactor="1.04" duration="423.00" waitingTime="317.00" timeLoss="16.25" traveltime="106.00">
        <ride waitingTime="317.00" vehicle="t_1" depart="1635.00" arrival="1741.00" arrivalPos="78.65" duration="106.00" routeLength="365.97" timeLoss="16.25"/>
    </personinfo>
    <personinfo id="20" depart="1349.00" type="DEFAULT_PEDTYPE" speedFactor="0.97" duration="552.00" waitingTime="383.00" timeLoss="68.03" traveltime="169.00">
        <ride waitingTime="383.00" vehicle="t_0" depart="1732.00" arrival="1901.00" arrivalPos="83.20" duration="169.00" routeLength="582.01" timeLoss="68.03"/>
    </personinfo>
    <personinfo id="18" depart="1255.00" type="DEFAULT_PEDTYPE" speedFactor="1.04" duration="654.00" waitingTime="562.00" timeLoss="12.47" traveltime="92.00">
        <ride waitingTime="562.00" vehicle="t_1" depart="1817.00" arrival="1909.00" arrivalPos="78.65" duration="92.00" routeLength="264.79" timeLoss="12.47"/>
    </personinfo>
    <personinfo id="21" depart="1356.00" type="DEFAULT_PEDTYPE" speedFactor="1.08" duration="707.00" waitingTime="573.00" timeLoss="46.93" traveltime="134.00">
        <ride waitingTime="573.00" vehicle="t_0" depart="1929.00" arrival="2063.00" arrivalPos="79.20" duration="134.00" routeLength="363.21" timeLoss="46.93"/>
    </personinfo>
    <personinfo id="22" depart="1490.00" type="DEFAULT_PEDTYPE" speedFactor="1.12" duration="610.00" waitingTime="470.00" timeLoss="46.61" traveltime="140.00">
        <ride waitingTime="470.00" vehicle="t_1" depart="1960.00" arrival="2100.00" arrivalPos="79.20" duration="140.00" routeLength="436.29" timeLoss="46.61"/>
    </personinfo>
    <personinfo id="23" depart="1552.00" type="DEFAULT_PEDTYPE" speedFactor="1.02" duration="672.00" waitingTime="568.00" timeLoss="14.93" traveltime="104.00">
        <ride waitingTime="568.00" vehicle="t_0" depart="2120.00" arrival="2224.00" arrivalPos="79.20" duration="104.00" routeLength="396.68" timeLoss="14.93"/>
    </personinfo>
    <personinfo id="14" depart="949.00" type="DEFAULT_PEDTYPE" speedFactor="0.83" duration="1350.00" waitingTime="1263.00" timeLoss="12.02" traveltime="87.00">
        <ride waitingTime="1263.00" vehicle="t_1" depart="2212.00" arrival="2299.00" arrivalPos="78.65" duration="87.00" routeLength="187.99" timeLoss="12.02"/>
    </personinfo>
    <personinfo id="15" depart="982.00" type="DEFAULT_PEDTYPE" speedFactor="0.87" duration="1481.00" waitingTime="1337.00" timeLoss="47.98" traveltime="144.00">
        <ride waitingTime="1337.00" vehicle="t_1" depart="2319.00" arrival="2463.00" arrivalPos="79.20" duration="144.00" routeLength="466.46" timeLoss="47.98"/>
    </personinfo>
    <personinfo id="25" depart="1761.00" type="DEFAULT_PEDTYPE" speedFactor="0.94" duration="709.00" waitingTime="508.00" timeLoss="108.60" traveltime="201.00">
        <ride waitingTime="508.00" vehicle="t_0" depart="2269.00" arrival="2470.00" arrivalPos="83.20" duration="201.00" routeLength="451.26" timeLoss="108.60"/>
    </personinfo>
    <personinfo id="16" depart="1089.00" type="DEFAULT_PEDTYPE" speedFactor="0.92" duration="1606.00" waitingTime="1448.00" timeLoss="64.47" traveltime="158.00">
        <ride waitingTime="1448.00" vehicle="t_0" depart="2537.00" arrival="2695.00" arrivalPos="83.20" duration="158.00" routeLength="467.97" timeLoss="64.47"/>
    </personinfo>
    <personinfo id="24" depart="1636.00" type="DEFAULT_PEDTYPE" speedFactor="0.99" duration="1107.00" waitingTime="904.00" timeLoss="106.83" traveltime="203.00">
        <ride waitingTime="904.00" vehicle="t_1" depart="2540.00" arrival="2743.00" arrivalPos="78.65" duration="203.00" routeLength="470.35" timeLoss="106.83"/>
    </personinfo>
</tripinfos>
