<?xml version="1.0" encoding="UTF-8"?>

<!-- generated on 2025-10-03 02:16:12 by Eclipse SUMO GUI Version 1.24.0
<sumoConfiguration xmlns:xsi="http://www.w3.org/2001/XMLSchema-instance" xsi:noNamespaceSchemaLocation="http://sumo.dlr.de/xsd/sumoConfiguration.xsd">

    <input>
        <net-file value=".\RLTrainingMap1\map.net.xml"/>
        <route-files value=".\RLTrainingMap1\map.rou.xml,.\RLTrainingMap1\persontrips_scale.rou.xml"/>
    </input>

    <output>
        <tripinfo-output value=".\RLTrainingMap1\tripinfos.xml"/>
        <stop-output value=".\RLTrainingMap1\stopinfos.xml"/>
        <statistic-output value=".\RLTrainingMap1\stats.xml"/>
    </output>

    <time>
        <step-length value="1.0"/>
    </time>

    <report>
        <verbose value="true"/>
        <duration-log.statistics value="true"/>
        <no-step-log value="true"/>
    </report>

    <taxi_device>
        <device.taxi.dispatch-algorithm value="traci"/>
    </taxi_device>

    <traci_server>
        <remote-port value="59997"/>
    </traci_server>

</sumoConfiguration>
-->

<tripinfos xmlns:xsi="http://www.w3.org/2001/XMLSchema-instance" xsi:noNamespaceSchemaLocation="http://sumo.dlr.de/xsd/tripinfo_file.xsd">
    <personinfo id="0" depart="70.00" type="DEFAULT_PEDTYPE" speedFactor="1.01" duration="248.00" waitingTime="84.00" timeLoss="62.91" traveltime="164.00">
        <ride waitingTime="84.00" vehicle="t_0" depart="154.00" arrival="318.00" arrivalPos="83.20" duration="164.00" routeLength="562.73" timeLoss="62.91"/>
    </personinfo>
    <personinfo id="1" depart="129.00" type="DEFAULT_PEDTYPE" speedFactor="1.08" duration="205.00" waitingTime="104.00" timeLoss="15.25" traveltime="101.00">
        <ride waitingTime="104.00" vehicle="t_1" depart="233.00" arrival="334.00" arrivalPos="83.20" duration="101.00" routeLength="338.56" timeLoss="15.25"/>
    </personinfo>
    <personinfo id="2" depart="289.00" type="DEFAULT_PEDTYPE" speedFactor="1.03" duration="250.00" waitingTime="124.00" timeLoss="41.83" traveltime="126.00">
        <ride waitingTime="124.00" vehicle="t_0" depart="413.00" arrival="539.00" arrivalPos="78.65" duration="126.00" routeLength="345.80" timeLoss="41.83"/>
    </personinfo>
    <personinfo id="3" depart="370.00" type="DEFAULT_PEDTYPE" speedFactor="0.89" duration="335.00" waitingTime="133.00" timeLoss="97.46" traveltime="202.00">
        <ride waitingTime="133.00" vehicle="t_1" depart="503.00" arrival="705.00" arrivalPos="79.20" duration="202.00" routeLength="571.29" timeLoss="97.46"/>
    </personinfo>
    <personinfo id="4" depart="417.00" type="DEFAULT_PEDTYPE" speedFactor="0.94" duration="342.00" waitingTime="184.00" timeLoss="57.62" traveltime="158.00">
        <ride waitingTime="184.00" vehicle="t_0" depart="601.00" arrival="759.00" arrivalPos="83.20" duration="158.00" routeLength="555.62" timeLoss="57.62"/>
    </personinfo>
    <personinfo id="6" depart="442.00" type="DEFAULT_PEDTYPE" speedFactor="1.09" duration="549.00" waitingTime="385.00" timeLoss="65.64" traveltime="164.00">
        <ride waitingTime="385.00" vehicle="t_0" depart="827.00" arrival="991.00" arrivalPos="83.20" duration="164.00" routeLength="546.80" timeLoss="65.64"/>
    </personinfo>
    <personinfo id="10" depart="692.00" type="DEFAULT_PEDTYPE" speedFactor="1.02" duration="460.00" waitingTime="360.00" timeLoss="11.80" traveltime="100.00">
        <ride waitingTime="360.00" vehicle="t_1" depart="1052.00" arrival="1152.00" arrivalPos="79.20" duration="100.00" routeLength="366.02" timeLoss="11.80"/>
    </personinfo>
    <personinfo id="5" depart="441.00" type="DEFAULT_PEDTYPE" speedFactor="0.86" duration="848.00" waitingTime="691.00" timeLoss="59.02" traveltime="157.00">
        <ride waitingTime="691.00" vehicle="t_0" depart="1132.00" arrival="1289.00" arrivalPos="79.20" duration="157.00" routeLength="528.56" timeLoss="59.02"/>
    </personinfo>
    <personinfo id="13" depart="893.00" type="DEFAULT_PEDTYPE" speedFactor="0.93" duration="425.00" waitingTime="425.00" timeLoss="0.00" traveltime="1318.00">
        <ride waitingTime="425.00" vehicle="t_0" depart="-1" arrival="1318.00" arrivalPos="4.99" duration="1318.00" routeLength="0.04" timeLoss="0.00"/>
    </personinfo>
    <personinfo id="7" depart="605.00" type="DEFAULT_PEDTYPE" speedFactor="1.03" duration="820.00" waitingTime="661.00" timeLoss="60.47" traveltime="159.00">
        <ride waitingTime="661.00" vehicle="t_1" depart="1266.00" arrival="1425.00" arrivalPos="83.20" duration="159.00" routeLength="492.41" timeLoss="60.47"/>
    </personinfo>
    <personinfo id="17" depart="1181.00" type="DEFAULT_PEDTYPE" speedFactor="1.04" duration="335.00" waitingTime="169.00" timeLoss="80.28" traveltime="166.00">
        <ride waitingTime="169.00" vehicle="t_0" depart="1350.00" arrival="1516.00" arrivalPos="83.20" duration="166.00" routeLength="376.22" timeLoss="80.28"/>
    </personinfo>
    <personinfo id="15" depart="982.00" type="DEFAULT_PEDTYPE" speedFactor="1.15" duration="577.00" waitingTime="453.00" timeLoss="28.29" traveltime="124.00">
        <ride waitingTime="453.00" vehicle="t_1" depart="1435.00" arrival="1559.00" arrivalPos="79.20" duration="124.00" routeLength="466.38" timeLoss="28.29"/>
    </personinfo>
    <personinfo id="9" depart="672.00" type="DEFAULT_PEDTYPE" speedFactor="1.16" duration="950.00" waitingTime="852.00" timeLoss="12.61" traveltime="98.00">
        <ride waitingTime="852.00" vehicle="t_0" depart="1524.00" arrival="1622.00" arrivalPos="83.20" duration="98.00" routeLength="368.07" timeLoss="12.61"/>
    </personinfo>
    <personinfo id="12" depart="862.00" type="DEFAULT_PEDTYPE" speedFactor="1.13" duration="861.00" waitingTime="740.00" timeLoss="16.40" traveltime="121.00">
        <ride waitingTime="740.00" vehicle="t_1" depart="1602.00" arrival="1723.00" arrivalPos="78.65" duration="121.00" routeLength="572.27" timeLoss="16.40"/>
    </personinfo>
    <personinfo id="23" depart="1552.00" type="DEFAULT_PEDTYPE" speedFactor="1.09" duration="209.00" waitingTime="78.00" timeLoss="41.89" traveltime="131.00">
        <ride waitingTime="78.00" vehicle="t_0" depart="1630.00" arrival="1761.00" arrivalPos="79.20" duration="131.00" routeLength="396.74" timeLoss="41.89"/>
    </personinfo>
    <personinfo id="8" depart="672.00" type="DEFAULT_PEDTYPE" speedFactor="0.94" duration="1255.00" waitingTime="1117.00" timeLoss="47.13" traveltime="138.00">
        <ride waitingTime="1117.00" vehicle="t_0" depart="1789.00" arrival="1927.00" arrivalPos="78.65" duration="138.00" routeLength="440.30" timeLoss="47.13"/>
    </personinfo>
    <personinfo id="11" depart="858.00" type="DEFAULT_PEDTYPE" speedFactor="1.01" duration="1082.00" waitingTime="949.00" timeLoss="35.13" traveltime="133.00">
        <ride waitingTime="949.00" vehicle="t_1" depart="1807.00" arrival="1940.00" arrivalPos="78.65" duration="133.00" routeLength="475.35" timeLoss="35.13"/>
    </personinfo>
    <personinfo id="14" depart="949.00" type="DEFAULT_PEDTYPE" speedFactor="1.18" duration="1128.00" waitingTime="1040.00" timeLoss="14.03" traveltime="88.00">
        <ride waitingTime="1040.00" vehicle="t_0" depart="1989.00" arrival="2077.00" arrivalPos="78.65" duration="88.00" routeLength="187.98" timeLoss="14.03"/>
    </personinfo>
    <personinfo id="16" depart="1089.00" type="DEFAULT_PEDTYPE" speedFactor="1.01" duration="1154.00" waitingTime="988.00" timeLoss="70.54" traveltime="166.00">
        <ride waitingTime="988.00" vehicle="t_1" depart="2077.00" arrival="2243.00" arrivalPos="83.20" duration="166.00" routeLength="467.99" timeLoss="70.54"/>
    </personinfo>
    <personinfo id="18" depart="1255.00" type="DEFAULT_PEDTYPE" speedFactor="1.04" duration="1079.00" waitingTime="966.00" timeLoss="34.51" traveltime="113.00">
        <ride waitingTime="966.00" vehicle="t_0" depart="2221.00" arrival="2334.00" arrivalPos="78.65" duration="113.00" routeLength="264.79" timeLoss="34.51"/>
    </personinfo>
    <personinfo id="20" depart="1349.00" type="DEFAULT_PEDTYPE" speedFactor="1.03" duration="1090.00" waitingTime="917.00" timeLoss="69.53" traveltime="173.00">
        <ride waitingTime="917.00" vehicle="t_1" depart="2266.00" arrival="2439.00" arrivalPos="83.20" duration="173.00" routeLength="582.09" timeLoss="69.53"/>
    </personinfo>
    <personinfo id="19" depart="1318.00" type="DEFAULT_PEDTYPE" speedFactor="1.09" duration="1225.00" waitingTime="1122.00" timeLoss="16.05" traveltime="103.00">
        <ride waitingTime="1122.00" vehicle="t_0" depart="2440.00" arrival="2543.00" arrivalPos="78.65" duration="103.00" routeLength="365.95" timeLoss="16.05"/>
    </personinfo>
    <personinfo id="21" depart="1356.00" type="DEFAULT_PEDTYPE" speedFactor="0.98" duration="1251.00" waitingTime="1102.00" timeLoss="61.02" traveltime="149.00">
        <ride waitingTime="1102.00" vehicle="t_1" depart="2458.00" arrival="2607.00" arrivalPos="79.20" duration="149.00" routeLength="363.22" timeLoss="61.02"/>
    </personinfo>
    <personinfo id="22" depart="1490.00" type="DEFAULT_PEDTYPE" speedFactor="1.01" duration="1331.00" waitingTime="1172.00" timeLoss="65.61" traveltime="159.00">
        <ride waitingTime="1172.00" vehicle="t_1" depart="2662.00" arrival="2821.00" arrivalPos="79.20" duration="159.00" routeLength="436.22" timeLoss="65.61"/>
    </personinfo>
    <personinfo id="24" depart="1636.00" type="DEFAULT_PEDTYPE" speedFactor="0.96" duration="1193.00" waitingTime="969.00" timeLoss="130.07" traveltime="224.00">
        <ride waitingTime="969.00" vehicle="t_0" depart="2605.00" arrival="2829.00" arrivalPos="78.65" duration="224.00" routeLength="470.28" timeLoss="130.07"/>
    </personinfo>
    <personinfo id="25" depart="1761.00" type="DEFAULT_PEDTYPE" speedFactor="0.97" duration="1249.00" waitingTime="1083.00" timeLoss="71.21" traveltime="166.00">
        <ride waitingTime="1083.00" vehicle="t_1" depart="2844.00" arrival="3010.00" arrivalPos="83.20" duration="166.00" routeLength="451.24" timeLoss="71.21"/>
    </personinfo>
</tripinfos>
