<?xml version="1.0" encoding="UTF-8"?>

<!-- generated on 2025-10-03 01:28:16 by Eclipse SUMO GUI Version 1.24.0
<sumoConfiguration xmlns:xsi="http://www.w3.org/2001/XMLSchema-instance" xsi:noNamespaceSchemaLocation="http://sumo.dlr.de/xsd/sumoConfiguration.xsd">

    <input>
        <net-file value=".\RLTrainingMap1\map.net.xml"/>
        <route-files value=".\RLTrainingMap1\map.rou.xml,.\RLTrainingMap1\persontrips_scale.rou.xml"/>
    </input>

    <output>
        <tripinfo-output value=".\RLTrainingMap1\tripinfos.xml"/>
        <stop-output value=".\RLTrainingMap1\stopinfos.xml"/>
        <statistic-output value=".\RLTrainingMap1\stats.xml"/>
    </output>

    <time>
        <step-length value="1.0"/>
    </time>

    <report>
        <verbose value="true"/>
        <duration-log.statistics value="true"/>
        <no-step-log value="true"/>
    </report>

    <taxi_device>
        <device.taxi.dispatch-algorithm value="traci"/>
    </taxi_device>

    <traci_server>
        <remote-port value="53804"/>
    </traci_server>

</sumoConfiguration>
-->

<tripinfos xmlns:xsi="http://www.w3.org/2001/XMLSchema-instance" xsi:noNamespaceSchemaLocation="http://sumo.dlr.de/xsd/tripinfo_file.xsd">
    <personinfo id="0" depart="70.00" type="DEFAULT_PEDTYPE" speedFactor="1.01" duration="248.00" waitingTime="84.00" timeLoss="62.91" traveltime="164.00">
        <ride waitingTime="84.00" vehicle="t_0" depart="154.00" arrival="318.00" arrivalPos="83.20" duration="164.00" routeLength="562.73" timeLoss="62.91"/>
    </personinfo>
    <personinfo id="1" depart="129.00" type="DEFAULT_PEDTYPE" speedFactor="1.08" duration="205.00" waitingTime="104.00" timeLoss="15.25" traveltime="101.00">
        <ride waitingTime="104.00" vehicle="t_1" depart="233.00" arrival="334.00" arrivalPos="83.20" duration="101.00" routeLength="338.56" timeLoss="15.25"/>
    </personinfo>
    <personinfo id="2" depart="289.00" type="DEFAULT_PEDTYPE" speedFactor="1.03" duration="250.00" waitingTime="124.00" timeLoss="41.83" traveltime="126.00">
        <ride waitingTime="124.00" vehicle="t_0" depart="413.00" arrival="539.00" arrivalPos="78.65" duration="126.00" routeLength="345.80" timeLoss="41.83"/>
    </personinfo>
    <personinfo id="3" depart="370.00" type="DEFAULT_PEDTYPE" speedFactor="1.05" duration="335.00" waitingTime="133.00" timeLoss="97.47" traveltime="202.00">
        <ride waitingTime="133.00" vehicle="t_1" depart="503.00" arrival="705.00" arrivalPos="79.20" duration="202.00" routeLength="571.29" timeLoss="97.47"/>
    </personinfo>
    <personinfo id="7" depart="605.00" type="DEFAULT_PEDTYPE" speedFactor="1.09" duration="279.00" waitingTime="124.00" timeLoss="59.16" traveltime="155.00">
        <ride waitingTime="124.00" vehicle="t_0" depart="729.00" arrival="884.00" arrivalPos="83.20" duration="155.00" routeLength="492.38" timeLoss="59.16"/>
    </personinfo>
    <personinfo id="5" depart="441.00" type="DEFAULT_PEDTYPE" speedFactor="0.94" duration="597.00" waitingTime="475.00" timeLoss="24.09" traveltime="122.00">
        <ride waitingTime="475.00" vehicle="t_0" depart="916.00" arrival="1038.00" arrivalPos="79.20" duration="122.00" routeLength="528.52" timeLoss="24.09"/>
    </personinfo>
    <personinfo id="4" depart="417.00" type="DEFAULT_PEDTYPE" speedFactor="0.89" duration="622.00" waitingTime="462.00" timeLoss="57.45" traveltime="160.00">
        <ride waitingTime="462.00" vehicle="t_1" depart="879.00" arrival="1039.00" arrivalPos="83.20" duration="160.00" routeLength="555.62" timeLoss="57.45"/>
    </personinfo>
    <personinfo id="8" depart="672.00" type="DEFAULT_PEDTYPE" speedFactor="1.05" duration="536.00" waitingTime="415.00" timeLoss="29.58" traveltime="121.00">
        <ride waitingTime="415.00" vehicle="t_0" depart="1087.00" arrival="1208.00" arrivalPos="78.65" duration="121.00" routeLength="440.25" timeLoss="29.58"/>
    </personinfo>
    <personinfo id="17" depart="1181.00" type="DEFAULT_PEDTYPE" speedFactor="1.18" duration="246.00" waitingTime="33.00" timeLoss="125.58" traveltime="213.00">
        <ride waitingTime="33.00" vehicle="t_1" depart="1214.00" arrival="1427.00" arrivalPos="83.20" duration="213.00" routeLength="376.22" timeLoss="125.58"/>
    </personinfo>
    <personinfo id="6" depart="442.00" type="DEFAULT_PEDTYPE" speedFactor="0.86" duration="1082.00" waitingTime="924.00" timeLoss="58.20" traveltime="158.00">
        <ride waitingTime="924.00" vehicle="t_0" depart="1366.00" arrival="1524.00" arrivalPos="83.20" duration="158.00" routeLength="553.34" timeLoss="58.20"/>
    </personinfo>
    <personinfo id="18" depart="1255.00" type="DEFAULT_PEDTYPE" speedFactor="1.10" duration="274.00" waitingTime="181.00" timeLoss="13.65" traveltime="93.00">
        <ride waitingTime="181.00" vehicle="t_1" depart="1436.00" arrival="1529.00" arrivalPos="78.65" duration="93.00" routeLength="264.86" timeLoss="13.65"/>
    </personinfo>
    <personinfo id="9" depart="672.00" type="DEFAULT_PEDTYPE" speedFactor="1.12" duration="1042.00" waitingTime="906.00" timeLoss="51.28" traveltime="136.00">
        <ride waitingTime="906.00" vehicle="t_0" depart="1578.00" arrival="1714.00" arrivalPos="83.20" duration="136.00" routeLength="368.07" timeLoss="51.28"/>
    </personinfo>
    <personinfo id="20" depart="1349.00" type="DEFAULT_PEDTYPE" speedFactor="1.08" duration="371.00" waitingTime="195.00" timeLoss="72.22" traveltime="176.00">
        <ride waitingTime="195.00" vehicle="t_1" depart="1544.00" arrival="1720.00" arrivalPos="83.20" duration="176.00" routeLength="582.04" timeLoss="72.22"/>
    </personinfo>
    <personinfo id="16" depart="1089.00" type="DEFAULT_PEDTYPE" speedFactor="0.95" duration="795.00" waitingTime="659.00" timeLoss="40.07" traveltime="136.00">
        <ride waitingTime="659.00" vehicle="t_1" depart="1748.00" arrival="1884.00" arrivalPos="83.20" duration="136.00" routeLength="468.00" timeLoss="40.07"/>
    </personinfo>
    <personinfo id="12" depart="862.00" type="DEFAULT_PEDTYPE" speedFactor="0.89" duration="1040.00" waitingTime="911.00" timeLoss="27.23" traveltime="129.00">
        <ride waitingTime="911.00" vehicle="t_0" depart="1773.00" arrival="1902.00" arrivalPos="78.65" duration="129.00" routeLength="572.28" timeLoss="27.23"/>
    </personinfo>
    <personinfo id="13" depart="893.00" type="DEFAULT_PEDTYPE" speedFactor="0.83" duration="1040.00" waitingTime="1040.00" timeLoss="0.00" traveltime="1933.00">
        <ride waitingTime="1040.00" vehicle="t_1" depart="-1" arrival="1933.00" arrivalPos="5.00" duration="1933.00" routeLength="0.01" timeLoss="0.00"/>
    </personinfo>
    <personinfo id="10" depart="692.00" type="DEFAULT_PEDTYPE" speedFactor="0.99" duration="1363.00" waitingTime="1258.00" timeLoss="19.00" traveltime="105.00">
        <ride waitingTime="1258.00" vehicle="t_0" depart="1950.00" arrival="2055.00" arrivalPos="79.20" duration="105.00" routeLength="365.97" timeLoss="19.00"/>
    </personinfo>
    <personinfo id="11" depart="858.00" type="DEFAULT_PEDTYPE" speedFactor="0.93" duration="1251.00" waitingTime="1090.00" timeLoss="62.78" traveltime="161.00">
        <ride waitingTime="1090.00" vehicle="t_1" depart="1948.00" arrival="2109.00" arrivalPos="78.65" duration="161.00" routeLength="475.31" timeLoss="62.78"/>
    </personinfo>
    <personinfo id="21" depart="1356.00" type="DEFAULT_PEDTYPE" speedFactor="1.12" duration="980.00" waitingTime="854.00" timeLoss="39.61" traveltime="126.00">
        <ride waitingTime="854.00" vehicle="t_0" depart="2210.00" arrival="2336.00" arrivalPos="79.20" duration="126.00" routeLength="363.22" timeLoss="39.61"/>
    </personinfo>
    <personinfo id="22" depart="1490.00" type="DEFAULT_PEDTYPE" speedFactor="1.02" duration="1060.00" waitingTime="900.00" timeLoss="68.55" traveltime="160.00">
        <ride waitingTime="900.00" vehicle="t_0" depart="2390.00" arrival="2550.00" arrivalPos="79.20" duration="160.00" routeLength="436.24" timeLoss="68.55"/>
    </personinfo>
    <personinfo id="25" depart="1761.00" type="DEFAULT_PEDTYPE" speedFactor="1.01" duration="887.00" waitingTime="703.00" timeLoss="89.32" traveltime="184.00">
        <ride waitingTime="703.00" vehicle="t_1" depart="2464.00" arrival="2648.00" arrivalPos="83.20" duration="184.00" routeLength="451.24" timeLoss="89.32"/>
    </personinfo>
    <personinfo id="15" depart="982.00" type="DEFAULT_PEDTYPE" speedFactor="0.92" duration="1751.00" waitingTime="1606.00" timeLoss="51.65" traveltime="145.00">
        <ride waitingTime="1606.00" vehicle="t_0" depart="2588.00" arrival="2733.00" arrivalPos="79.20" duration="145.00" routeLength="466.37" timeLoss="51.65"/>
    </personinfo>
    <personinfo id="23" depart="1552.00" type="DEFAULT_PEDTYPE" speedFactor="0.99" duration="1268.00" waitingTime="1116.00" timeLoss="61.57" traveltime="152.00">
        <ride waitingTime="1116.00" vehicle="t_1" depart="2668.00" arrival="2820.00" arrivalPos="79.20" duration="152.00" routeLength="396.69" timeLoss="61.57"/>
    </personinfo>
    <personinfo id="14" depart="949.00" type="DEFAULT_PEDTYPE" speedFactor="0.87" duration="1960.00" waitingTime="1875.00" timeLoss="10.97" traveltime="85.00">
        <ride waitingTime="1875.00" vehicle="t_0" depart="2824.00" arrival="2909.00" arrivalPos="78.65" duration="85.00" routeLength="187.97" timeLoss="10.97"/>
    </personinfo>
    <personinfo id="19" depart="1318.00" type="DEFAULT_PEDTYPE" speedFactor="0.90" duration="1659.00" waitingTime="1552.00" timeLoss="18.19" traveltime="107.00">
        <ride waitingTime="1552.00" vehicle="t_1" depart="2870.00" arrival="2977.00" arrivalPos="78.65" duration="107.00" routeLength="366.00" timeLoss="18.19"/>
    </personinfo>
    <personinfo id="24" depart="1636.00" type="DEFAULT_PEDTYPE" speedFactor="1.04" duration="1467.00" waitingTime="1305.00" timeLoss="68.11" traveltime="162.00">
        <ride waitingTime="1305.00" vehicle="t_0" depart="2941.00" arrival="3103.00" arrivalPos="78.65" duration="162.00" routeLength="470.27" timeLoss="68.11"/>
    </personinfo>
</tripinfos>
